
     Program PWSCF v.7.5 starts on 12Feb2026 at 19:18:33 

     This program is part of the open-source Quantum ESPRESSO suite
     for quantum simulation of materials; please cite
         "P. Giannozzi et al., J. Phys.:Condens. Matter 21 395502 (2009);
         "P. Giannozzi et al., J. Phys.:Condens. Matter 29 465901 (2017);
         "P. Giannozzi et al., J. Chem. Phys. 152 154105 (2020);
          URL http://www.quantum-espresso.org", 
     in publications or presentations arising from this work. More details at
     http://www.quantum-espresso.org/quote

     Parallel version (MPI & OpenMP), running on       2 processor cores
     Number of MPI processes:                 1
     Threads/MPI process:                     2

     MPI processes distributed on     1 nodes
     1143529 MiB available memory on the printing compute node when the environment starts
 
     Reading input from pw.in

     Current dimensions of program PWSCF are:
     Max number of different atomic species (ntypx) = 10
     Max number of k-points (npk) =  40000
     Max angular momentum in pseudopotentials (lmaxx) =  4

     IMPORTANT: XC functional enforced from input :
     Exchange-correlation= PBE
                           (   1   4   3   4   0   0   0)
     Any further DFT definition will be discarded
     Please, verify this is what you really want


     gamma-point specific algorithms are used
     Message from routine setup:
     using ibrav=0 with symmetry is DISCOURAGED, use correct ibrav instead
 
     Subspace diagonalization in iterative solution of the eigenvalue problem:
     a serial algorithm will be used

 
     G-vector sticks info
     --------------------
     sticks:   dense  smooth     PW     G-vecs:    dense   smooth      PW
     Sum       11561   11561   2885               936185   936185  116921
 
     Using Slab Decomposition
 


     bravais-lattice index     =            0
     lattice parameter (alat)  =      26.9626  a.u.
     unit-cell volume          =   19601.3464 (a.u.)^3
     number of atoms/cell      =          511
     number of atomic types    =            2
     number of electrons       =      2046.00
     number of Kohn-Sham states=         1023
     kinetic-energy cutoff     =      50.0000  Ry
     charge density cutoff     =     200.0000  Ry
     scf convergence threshold =      1.0E-06
     mixing beta               =       0.7000
     number of iterations used =            8  plain     mixing
     Exchange-correlation= PBE
                           (   1   4   3   4   0   0   0)

     GPU acceleration is ACTIVE.  8 visible GPUs per MPI rank
     GPU-aware MPI enabled


     celldm(1)=  26.962612  celldm(2)=   0.000000  celldm(3)=   0.000000
     celldm(4)=   0.000000  celldm(5)=   0.000000  celldm(6)=   0.000000

     crystal axes: (cart. coord. in units of alat)
               a(1) = (   1.000000   0.000000   0.000000 )  
               a(2) = (   0.000000   1.000000   0.000000 )  
               a(3) = (   0.000000   0.000000   1.000000 )  

     reciprocal axes: (cart. coord. in units 2 pi/alat)
               b(1) = (  1.000000  0.000000  0.000000 )  
               b(2) = (  0.000000  1.000000  0.000000 )  
               b(3) = (  0.000000  0.000000  1.000000 )  


     PseudoPot. # 1 for C  read from file:
     ./C_ONCV_PBE-1.2.upf
     MD5 check sum: 1a5f83a7b1f58d24996abe00ed223ac6
     Pseudo is Norm-conserving, Zval =  4.0
     Generated using ONCVPSP code by D. R. Hamann
     Using radial grid of  602 points,  4 beta functions with: 
                l(1) =   0
                l(2) =   0
                l(3) =   1
                l(4) =   1

     PseudoPot. # 2 for N  read from file:
     ./N_ONCV_PBE-1.2.upf
     MD5 check sum: c233fa8df51455e992258b7c3dee8a9f
     Pseudo is Norm-conserving, Zval =  5.0
     Generated using ONCVPSP code by D. R. Hamann
     Using radial grid of  602 points,  4 beta functions with: 
                l(1) =   0
                l(2) =   0
                l(3) =   1
                l(4) =   1

     atomic species   valence    mass     pseudopotential
     C                 4.00    12.01100     C ( 1.00)
     N                 5.00    14.00700     N ( 1.00)

      2 Sym. Ops. (no inversion) found ( 1 have fractional translation)



   Cartesian axes

     site n.     atom                  positions (alat units)
         1        C      tau(   1) = (   0.0000000   0.0000000   0.0000000  )
         2        C      tau(   2) = (   0.0625000   0.0625000   0.0625000  )
         3        C      tau(   3) = (   0.0000000   0.1250000   0.1250000  )
         4        C      tau(   4) = (   0.1250000   0.0000000   0.1250000  )
         5        C      tau(   5) = (   0.1875000   0.0625000   0.1875000  )
         6        C      tau(   6) = (   0.1250000   0.1250000   0.0000000  )
         7        C      tau(   7) = (   0.1875000   0.1875000   0.0625000  )
         8        C      tau(   8) = (   0.0000000   0.0000000   0.2500000  )
         9        C      tau(   9) = (   0.0625000   0.0625000   0.3125000  )
        10        C      tau(  10) = (   0.0000000   0.1250000   0.3750000  )
        11        C      tau(  11) = (   0.0625000   0.1875000   0.4375000  )
        12        C      tau(  12) = (   0.1250000   0.0000000   0.3750000  )
        13        C      tau(  13) = (   0.1875000   0.0625000   0.4375000  )
        14        N      tau(  14) = (   0.1250000   0.1250000   0.2500000  )
        15        C      tau(  15) = (   0.1875000   0.1875000   0.3125000  )
        16        C      tau(  16) = (   0.0000000   0.0000000   0.5000000  )
        17        C      tau(  17) = (   0.0625000   0.0625000   0.5625000  )
        18        C      tau(  18) = (   0.0000000   0.1250000   0.6250000  )
        19        C      tau(  19) = (   0.0625000   0.1875000   0.6875000  )
        20        C      tau(  20) = (   0.1250000   0.0000000   0.6250000  )
        21        C      tau(  21) = (   0.1875000   0.0625000   0.6875000  )
        22        C      tau(  22) = (   0.1250000   0.1250000   0.5000000  )
        23        C      tau(  23) = (   0.1875000   0.1875000   0.5625000  )
        24        C      tau(  24) = (   0.0000000   0.0000000   0.7500000  )
        25        C      tau(  25) = (   0.0625000   0.0625000   0.8125000  )
        26        C      tau(  26) = (   0.0000000   0.1250000   0.8750000  )
        27        C      tau(  27) = (   0.0625000   0.1875000   0.9375000  )
        28        C      tau(  28) = (   0.1250000   0.0000000   0.8750000  )
        29        C      tau(  29) = (   0.1875000   0.0625000   0.9375000  )
        30        C      tau(  30) = (   0.1250000   0.1250000   0.7500000  )
        31        C      tau(  31) = (   0.1875000   0.1875000   0.8125000  )
        32        C      tau(  32) = (   0.0000000   0.2500000   0.0000000  )
        33        C      tau(  33) = (   0.0625000   0.3125000   0.0625000  )
        34        C      tau(  34) = (   0.0000000   0.3750000   0.1250000  )
        35        C      tau(  35) = (   0.0625000   0.4375000   0.1875000  )
        36        C      tau(  36) = (   0.1250000   0.2500000   0.1250000  )
        37        C      tau(  37) = (   0.1875000   0.3125000   0.1875000  )
        38        C      tau(  38) = (   0.1250000   0.3750000   0.0000000  )
        39        C      tau(  39) = (   0.1875000   0.4375000   0.0625000  )
        40        C      tau(  40) = (   0.0000000   0.2500000   0.2500000  )
        41        C      tau(  41) = (   0.0625000   0.3125000   0.3125000  )
        42        C      tau(  42) = (   0.0000000   0.3750000   0.3750000  )
        43        C      tau(  43) = (   0.0625000   0.4375000   0.4375000  )
        44        C      tau(  44) = (   0.1250000   0.2500000   0.3750000  )
        45        C      tau(  45) = (   0.1875000   0.3125000   0.4375000  )
        46        C      tau(  46) = (   0.1250000   0.3750000   0.2500000  )
        47        C      tau(  47) = (   0.1875000   0.4375000   0.3125000  )
        48        C      tau(  48) = (   0.0000000   0.2500000   0.5000000  )
        49        C      tau(  49) = (   0.0625000   0.3125000   0.5625000  )
        50        C      tau(  50) = (   0.0000000   0.3750000   0.6250000  )
        51        C      tau(  51) = (   0.0625000   0.4375000   0.6875000  )
        52        C      tau(  52) = (   0.1250000   0.2500000   0.6250000  )
        53        C      tau(  53) = (   0.1875000   0.3125000   0.6875000  )
        54        C      tau(  54) = (   0.1250000   0.3750000   0.5000000  )
        55        C      tau(  55) = (   0.1875000   0.4375000   0.5625000  )
        56        C      tau(  56) = (   0.0000000   0.2500000   0.7500000  )
        57        C      tau(  57) = (   0.0625000   0.3125000   0.8125000  )
        58        C      tau(  58) = (   0.0000000   0.3750000   0.8750000  )
        59        C      tau(  59) = (   0.0625000   0.4375000   0.9375000  )
        60        C      tau(  60) = (   0.1250000   0.2500000   0.8750000  )
        61        C      tau(  61) = (   0.1875000   0.3125000   0.9375000  )
        62        C      tau(  62) = (   0.1250000   0.3750000   0.7500000  )
        63        C      tau(  63) = (   0.1875000   0.4375000   0.8125000  )
        64        C      tau(  64) = (   0.0000000   0.5000000   0.0000000  )
        65        C      tau(  65) = (   0.0625000   0.5625000   0.0625000  )
        66        C      tau(  66) = (   0.0000000   0.6250000   0.1250000  )
        67        C      tau(  67) = (   0.0625000   0.6875000   0.1875000  )
        68        C      tau(  68) = (   0.1250000   0.5000000   0.1250000  )
        69        C      tau(  69) = (   0.1875000   0.5625000   0.1875000  )
        70        C      tau(  70) = (   0.1250000   0.6250000   0.0000000  )
        71        C      tau(  71) = (   0.1875000   0.6875000   0.0625000  )
        72        C      tau(  72) = (   0.0000000   0.5000000   0.2500000  )
        73        C      tau(  73) = (   0.0625000   0.5625000   0.3125000  )
        74        C      tau(  74) = (   0.0000000   0.6250000   0.3750000  )
        75        C      tau(  75) = (   0.0625000   0.6875000   0.4375000  )
        76        C      tau(  76) = (   0.1250000   0.5000000   0.3750000  )
        77        C      tau(  77) = (   0.1875000   0.5625000   0.4375000  )
        78        C      tau(  78) = (   0.1250000   0.6250000   0.2500000  )
        79        C      tau(  79) = (   0.1875000   0.6875000   0.3125000  )
        80        C      tau(  80) = (   0.0000000   0.5000000   0.5000000  )
        81        C      tau(  81) = (   0.0625000   0.5625000   0.5625000  )
        82        C      tau(  82) = (   0.0000000   0.6250000   0.6250000  )
        83        C      tau(  83) = (   0.0625000   0.6875000   0.6875000  )
        84        C      tau(  84) = (   0.1250000   0.5000000   0.6250000  )
        85        C      tau(  85) = (   0.1875000   0.5625000   0.6875000  )
        86        C      tau(  86) = (   0.1250000   0.6250000   0.5000000  )
        87        C      tau(  87) = (   0.1875000   0.6875000   0.5625000  )
        88        C      tau(  88) = (   0.0000000   0.5000000   0.7500000  )
        89        C      tau(  89) = (   0.0625000   0.5625000   0.8125000  )
        90        C      tau(  90) = (   0.0000000   0.6250000   0.8750000  )
        91        C      tau(  91) = (   0.0625000   0.6875000   0.9375000  )
        92        C      tau(  92) = (   0.1250000   0.5000000   0.8750000  )
        93        C      tau(  93) = (   0.1875000   0.5625000   0.9375000  )
        94        C      tau(  94) = (   0.1250000   0.6250000   0.7500000  )
        95        C      tau(  95) = (   0.1875000   0.6875000   0.8125000  )
        96        C      tau(  96) = (   0.0000000   0.7500000   0.0000000  )
        97        C      tau(  97) = (   0.0625000   0.8125000   0.0625000  )
        98        C      tau(  98) = (   0.0000000   0.8750000   0.1250000  )
        99        C      tau(  99) = (   0.0625000   0.9375000   0.1875000  )
       100        C      tau( 100) = (   0.1250000   0.7500000   0.1250000  )
       101        C      tau( 101) = (   0.1875000   0.8125000   0.1875000  )
       102        C      tau( 102) = (   0.1250000   0.8750000   0.0000000  )
       103        C      tau( 103) = (   0.1875000   0.9375000   0.0625000  )
       104        C      tau( 104) = (   0.0000000   0.7500000   0.2500000  )
       105        C      tau( 105) = (   0.0625000   0.8125000   0.3125000  )
       106        C      tau( 106) = (   0.0000000   0.8750000   0.3750000  )
       107        C      tau( 107) = (   0.0625000   0.9375000   0.4375000  )
       108        C      tau( 108) = (   0.1250000   0.7500000   0.3750000  )
       109        C      tau( 109) = (   0.1875000   0.8125000   0.4375000  )
       110        C      tau( 110) = (   0.1250000   0.8750000   0.2500000  )
       111        C      tau( 111) = (   0.1875000   0.9375000   0.3125000  )
       112        C      tau( 112) = (   0.0000000   0.7500000   0.5000000  )
       113        C      tau( 113) = (   0.0625000   0.8125000   0.5625000  )
       114        C      tau( 114) = (   0.0000000   0.8750000   0.6250000  )
       115        C      tau( 115) = (   0.0625000   0.9375000   0.6875000  )
       116        C      tau( 116) = (   0.1250000   0.7500000   0.6250000  )
       117        C      tau( 117) = (   0.1875000   0.8125000   0.6875000  )
       118        C      tau( 118) = (   0.1250000   0.8750000   0.5000000  )
       119        C      tau( 119) = (   0.1875000   0.9375000   0.5625000  )
       120        C      tau( 120) = (   0.0000000   0.7500000   0.7500000  )
       121        C      tau( 121) = (   0.0625000   0.8125000   0.8125000  )
       122        C      tau( 122) = (   0.0000000   0.8750000   0.8750000  )
       123        C      tau( 123) = (   0.0625000   0.9375000   0.9375000  )
       124        C      tau( 124) = (   0.1250000   0.7500000   0.8750000  )
       125        C      tau( 125) = (   0.1875000   0.8125000   0.9375000  )
       126        C      tau( 126) = (   0.1250000   0.8750000   0.7500000  )
       127        C      tau( 127) = (   0.1875000   0.9375000   0.8125000  )
       128        C      tau( 128) = (   0.2500000   0.0000000   0.0000000  )
       129        C      tau( 129) = (   0.3125000   0.0625000   0.0625000  )
       130        C      tau( 130) = (   0.2500000   0.1250000   0.1250000  )
       131        C      tau( 131) = (   0.3125000   0.1875000   0.1875000  )
       132        C      tau( 132) = (   0.3750000   0.0000000   0.1250000  )
       133        C      tau( 133) = (   0.4375000   0.0625000   0.1875000  )
       134        C      tau( 134) = (   0.3750000   0.1250000   0.0000000  )
       135        C      tau( 135) = (   0.4375000   0.1875000   0.0625000  )
       136        C      tau( 136) = (   0.2500000   0.0000000   0.2500000  )
       137        C      tau( 137) = (   0.3125000   0.0625000   0.3125000  )
       138        C      tau( 138) = (   0.2500000   0.1250000   0.3750000  )
       139        C      tau( 139) = (   0.3125000   0.1875000   0.4375000  )
       140        C      tau( 140) = (   0.3750000   0.0000000   0.3750000  )
       141        C      tau( 141) = (   0.4375000   0.0625000   0.4375000  )
       142        C      tau( 142) = (   0.3750000   0.1250000   0.2500000  )
       143        C      tau( 143) = (   0.4375000   0.1875000   0.3125000  )
       144        C      tau( 144) = (   0.2500000   0.0000000   0.5000000  )
       145        C      tau( 145) = (   0.3125000   0.0625000   0.5625000  )
       146        C      tau( 146) = (   0.2500000   0.1250000   0.6250000  )
       147        C      tau( 147) = (   0.3125000   0.1875000   0.6875000  )
       148        C      tau( 148) = (   0.3750000   0.0000000   0.6250000  )
       149        C      tau( 149) = (   0.4375000   0.0625000   0.6875000  )
       150        C      tau( 150) = (   0.3750000   0.1250000   0.5000000  )
       151        C      tau( 151) = (   0.4375000   0.1875000   0.5625000  )
       152        C      tau( 152) = (   0.2500000   0.0000000   0.7500000  )
       153        C      tau( 153) = (   0.3125000   0.0625000   0.8125000  )
       154        C      tau( 154) = (   0.2500000   0.1250000   0.8750000  )
       155        C      tau( 155) = (   0.3125000   0.1875000   0.9375000  )
       156        C      tau( 156) = (   0.3750000   0.0000000   0.8750000  )
       157        C      tau( 157) = (   0.4375000   0.0625000   0.9375000  )
       158        C      tau( 158) = (   0.3750000   0.1250000   0.7500000  )
       159        C      tau( 159) = (   0.4375000   0.1875000   0.8125000  )
       160        C      tau( 160) = (   0.2500000   0.2500000   0.0000000  )
       161        C      tau( 161) = (   0.3125000   0.3125000   0.0625000  )
       162        C      tau( 162) = (   0.2500000   0.3750000   0.1250000  )
       163        C      tau( 163) = (   0.3125000   0.4375000   0.1875000  )
       164        C      tau( 164) = (   0.3750000   0.2500000   0.1250000  )
       165        C      tau( 165) = (   0.4375000   0.3125000   0.1875000  )
       166        C      tau( 166) = (   0.3750000   0.3750000   0.0000000  )
       167        C      tau( 167) = (   0.4375000   0.4375000   0.0625000  )
       168        C      tau( 168) = (   0.2500000   0.2500000   0.2500000  )
       169        C      tau( 169) = (   0.3125000   0.3125000   0.3125000  )
       170        C      tau( 170) = (   0.2500000   0.3750000   0.3750000  )
       171        C      tau( 171) = (   0.3125000   0.4375000   0.4375000  )
       172        C      tau( 172) = (   0.3750000   0.2500000   0.3750000  )
       173        C      tau( 173) = (   0.4375000   0.3125000   0.4375000  )
       174        C      tau( 174) = (   0.3750000   0.3750000   0.2500000  )
       175        C      tau( 175) = (   0.4375000   0.4375000   0.3125000  )
       176        C      tau( 176) = (   0.2500000   0.2500000   0.5000000  )
       177        C      tau( 177) = (   0.3125000   0.3125000   0.5625000  )
       178        C      tau( 178) = (   0.2500000   0.3750000   0.6250000  )
       179        C      tau( 179) = (   0.3125000   0.4375000   0.6875000  )
       180        C      tau( 180) = (   0.3750000   0.2500000   0.6250000  )
       181        C      tau( 181) = (   0.4375000   0.3125000   0.6875000  )
       182        C      tau( 182) = (   0.3750000   0.3750000   0.5000000  )
       183        C      tau( 183) = (   0.4375000   0.4375000   0.5625000  )
       184        C      tau( 184) = (   0.2500000   0.2500000   0.7500000  )
       185        C      tau( 185) = (   0.3125000   0.3125000   0.8125000  )
       186        C      tau( 186) = (   0.2500000   0.3750000   0.8750000  )
       187        C      tau( 187) = (   0.3125000   0.4375000   0.9375000  )
       188        C      tau( 188) = (   0.3750000   0.2500000   0.8750000  )
       189        C      tau( 189) = (   0.4375000   0.3125000   0.9375000  )
       190        C      tau( 190) = (   0.3750000   0.3750000   0.7500000  )
       191        C      tau( 191) = (   0.4375000   0.4375000   0.8125000  )
       192        C      tau( 192) = (   0.2500000   0.5000000   0.0000000  )
       193        C      tau( 193) = (   0.3125000   0.5625000   0.0625000  )
       194        C      tau( 194) = (   0.2500000   0.6250000   0.1250000  )
       195        C      tau( 195) = (   0.3125000   0.6875000   0.1875000  )
       196        C      tau( 196) = (   0.3750000   0.5000000   0.1250000  )
       197        C      tau( 197) = (   0.4375000   0.5625000   0.1875000  )
       198        C      tau( 198) = (   0.3750000   0.6250000   0.0000000  )
       199        C      tau( 199) = (   0.4375000   0.6875000   0.0625000  )
       200        C      tau( 200) = (   0.2500000   0.5000000   0.2500000  )
       201        C      tau( 201) = (   0.3125000   0.5625000   0.3125000  )
       202        C      tau( 202) = (   0.2500000   0.6250000   0.3750000  )
       203        C      tau( 203) = (   0.3125000   0.6875000   0.4375000  )
       204        C      tau( 204) = (   0.3750000   0.5000000   0.3750000  )
       205        C      tau( 205) = (   0.4375000   0.5625000   0.4375000  )
       206        C      tau( 206) = (   0.3750000   0.6250000   0.2500000  )
       207        C      tau( 207) = (   0.4375000   0.6875000   0.3125000  )
       208        C      tau( 208) = (   0.2500000   0.5000000   0.5000000  )
       209        C      tau( 209) = (   0.3125000   0.5625000   0.5625000  )
       210        C      tau( 210) = (   0.2500000   0.6250000   0.6250000  )
       211        C      tau( 211) = (   0.3125000   0.6875000   0.6875000  )
       212        C      tau( 212) = (   0.3750000   0.5000000   0.6250000  )
       213        C      tau( 213) = (   0.4375000   0.5625000   0.6875000  )
       214        C      tau( 214) = (   0.3750000   0.6250000   0.5000000  )
       215        C      tau( 215) = (   0.4375000   0.6875000   0.5625000  )
       216        C      tau( 216) = (   0.2500000   0.5000000   0.7500000  )
       217        C      tau( 217) = (   0.3125000   0.5625000   0.8125000  )
       218        C      tau( 218) = (   0.2500000   0.6250000   0.8750000  )
       219        C      tau( 219) = (   0.3125000   0.6875000   0.9375000  )
       220        C      tau( 220) = (   0.3750000   0.5000000   0.8750000  )
       221        C      tau( 221) = (   0.4375000   0.5625000   0.9375000  )
       222        C      tau( 222) = (   0.3750000   0.6250000   0.7500000  )
       223        C      tau( 223) = (   0.4375000   0.6875000   0.8125000  )
       224        C      tau( 224) = (   0.2500000   0.7500000   0.0000000  )
       225        C      tau( 225) = (   0.3125000   0.8125000   0.0625000  )
       226        C      tau( 226) = (   0.2500000   0.8750000   0.1250000  )
       227        C      tau( 227) = (   0.3125000   0.9375000   0.1875000  )
       228        C      tau( 228) = (   0.3750000   0.7500000   0.1250000  )
       229        C      tau( 229) = (   0.4375000   0.8125000   0.1875000  )
       230        C      tau( 230) = (   0.3750000   0.8750000   0.0000000  )
       231        C      tau( 231) = (   0.4375000   0.9375000   0.0625000  )
       232        C      tau( 232) = (   0.2500000   0.7500000   0.2500000  )
       233        C      tau( 233) = (   0.3125000   0.8125000   0.3125000  )
       234        C      tau( 234) = (   0.2500000   0.8750000   0.3750000  )
       235        C      tau( 235) = (   0.3125000   0.9375000   0.4375000  )
       236        C      tau( 236) = (   0.3750000   0.7500000   0.3750000  )
       237        C      tau( 237) = (   0.4375000   0.8125000   0.4375000  )
       238        C      tau( 238) = (   0.3750000   0.8750000   0.2500000  )
       239        C      tau( 239) = (   0.4375000   0.9375000   0.3125000  )
       240        C      tau( 240) = (   0.2500000   0.7500000   0.5000000  )
       241        C      tau( 241) = (   0.3125000   0.8125000   0.5625000  )
       242        C      tau( 242) = (   0.2500000   0.8750000   0.6250000  )
       243        C      tau( 243) = (   0.3125000   0.9375000   0.6875000  )
       244        C      tau( 244) = (   0.3750000   0.7500000   0.6250000  )
       245        C      tau( 245) = (   0.4375000   0.8125000   0.6875000  )
       246        C      tau( 246) = (   0.3750000   0.8750000   0.5000000  )
       247        C      tau( 247) = (   0.4375000   0.9375000   0.5625000  )
       248        C      tau( 248) = (   0.2500000   0.7500000   0.7500000  )
       249        C      tau( 249) = (   0.3125000   0.8125000   0.8125000  )
       250        C      tau( 250) = (   0.2500000   0.8750000   0.8750000  )
       251        C      tau( 251) = (   0.3125000   0.9375000   0.9375000  )
       252        C      tau( 252) = (   0.3750000   0.7500000   0.8750000  )
       253        C      tau( 253) = (   0.4375000   0.8125000   0.9375000  )
       254        C      tau( 254) = (   0.3750000   0.8750000   0.7500000  )
       255        C      tau( 255) = (   0.4375000   0.9375000   0.8125000  )
       256        C      tau( 256) = (   0.5000000   0.0000000   0.0000000  )
       257        C      tau( 257) = (   0.5625000   0.0625000   0.0625000  )
       258        C      tau( 258) = (   0.5000000   0.1250000   0.1250000  )
       259        C      tau( 259) = (   0.5625000   0.1875000   0.1875000  )
       260        C      tau( 260) = (   0.6250000   0.0000000   0.1250000  )
       261        C      tau( 261) = (   0.6875000   0.0625000   0.1875000  )
       262        C      tau( 262) = (   0.6250000   0.1250000   0.0000000  )
       263        C      tau( 263) = (   0.6875000   0.1875000   0.0625000  )
       264        C      tau( 264) = (   0.5000000   0.0000000   0.2500000  )
       265        C      tau( 265) = (   0.5625000   0.0625000   0.3125000  )
       266        C      tau( 266) = (   0.5000000   0.1250000   0.3750000  )
       267        C      tau( 267) = (   0.5625000   0.1875000   0.4375000  )
       268        C      tau( 268) = (   0.6250000   0.0000000   0.3750000  )
       269        C      tau( 269) = (   0.6875000   0.0625000   0.4375000  )
       270        C      tau( 270) = (   0.6250000   0.1250000   0.2500000  )
       271        C      tau( 271) = (   0.6875000   0.1875000   0.3125000  )
       272        C      tau( 272) = (   0.5000000   0.0000000   0.5000000  )
       273        C      tau( 273) = (   0.5625000   0.0625000   0.5625000  )
       274        C      tau( 274) = (   0.5000000   0.1250000   0.6250000  )
       275        C      tau( 275) = (   0.5625000   0.1875000   0.6875000  )
       276        C      tau( 276) = (   0.6250000   0.0000000   0.6250000  )
       277        C      tau( 277) = (   0.6875000   0.0625000   0.6875000  )
       278        C      tau( 278) = (   0.6250000   0.1250000   0.5000000  )
       279        C      tau( 279) = (   0.6875000   0.1875000   0.5625000  )
       280        C      tau( 280) = (   0.5000000   0.0000000   0.7500000  )
       281        C      tau( 281) = (   0.5625000   0.0625000   0.8125000  )
       282        C      tau( 282) = (   0.5000000   0.1250000   0.8750000  )
       283        C      tau( 283) = (   0.5625000   0.1875000   0.9375000  )
       284        C      tau( 284) = (   0.6250000   0.0000000   0.8750000  )
       285        C      tau( 285) = (   0.6875000   0.0625000   0.9375000  )
       286        C      tau( 286) = (   0.6250000   0.1250000   0.7500000  )
       287        C      tau( 287) = (   0.6875000   0.1875000   0.8125000  )
       288        C      tau( 288) = (   0.5000000   0.2500000   0.0000000  )
       289        C      tau( 289) = (   0.5625000   0.3125000   0.0625000  )
       290        C      tau( 290) = (   0.5000000   0.3750000   0.1250000  )
       291        C      tau( 291) = (   0.5625000   0.4375000   0.1875000  )
       292        C      tau( 292) = (   0.6250000   0.2500000   0.1250000  )
       293        C      tau( 293) = (   0.6875000   0.3125000   0.1875000  )
       294        C      tau( 294) = (   0.6250000   0.3750000   0.0000000  )
       295        C      tau( 295) = (   0.6875000   0.4375000   0.0625000  )
       296        C      tau( 296) = (   0.5000000   0.2500000   0.2500000  )
       297        C      tau( 297) = (   0.5625000   0.3125000   0.3125000  )
       298        C      tau( 298) = (   0.5000000   0.3750000   0.3750000  )
       299        C      tau( 299) = (   0.5625000   0.4375000   0.4375000  )
       300        C      tau( 300) = (   0.6250000   0.2500000   0.3750000  )
       301        C      tau( 301) = (   0.6875000   0.3125000   0.4375000  )
       302        C      tau( 302) = (   0.6250000   0.3750000   0.2500000  )
       303        C      tau( 303) = (   0.6875000   0.4375000   0.3125000  )
       304        C      tau( 304) = (   0.5000000   0.2500000   0.5000000  )
       305        C      tau( 305) = (   0.5625000   0.3125000   0.5625000  )
       306        C      tau( 306) = (   0.5000000   0.3750000   0.6250000  )
       307        C      tau( 307) = (   0.5625000   0.4375000   0.6875000  )
       308        C      tau( 308) = (   0.6250000   0.2500000   0.6250000  )
       309        C      tau( 309) = (   0.6875000   0.3125000   0.6875000  )
       310        C      tau( 310) = (   0.6250000   0.3750000   0.5000000  )
       311        C      tau( 311) = (   0.6875000   0.4375000   0.5625000  )
       312        C      tau( 312) = (   0.5000000   0.2500000   0.7500000  )
       313        C      tau( 313) = (   0.5625000   0.3125000   0.8125000  )
       314        C      tau( 314) = (   0.5000000   0.3750000   0.8750000  )
       315        C      tau( 315) = (   0.5625000   0.4375000   0.9375000  )
       316        C      tau( 316) = (   0.6250000   0.2500000   0.8750000  )
       317        C      tau( 317) = (   0.6875000   0.3125000   0.9375000  )
       318        C      tau( 318) = (   0.6250000   0.3750000   0.7500000  )
       319        C      tau( 319) = (   0.6875000   0.4375000   0.8125000  )
       320        C      tau( 320) = (   0.5000000   0.5000000   0.0000000  )
       321        C      tau( 321) = (   0.5625000   0.5625000   0.0625000  )
       322        C      tau( 322) = (   0.5000000   0.6250000   0.1250000  )
       323        C      tau( 323) = (   0.5625000   0.6875000   0.1875000  )
       324        C      tau( 324) = (   0.6250000   0.5000000   0.1250000  )
       325        C      tau( 325) = (   0.6875000   0.5625000   0.1875000  )
       326        C      tau( 326) = (   0.6250000   0.6250000   0.0000000  )
       327        C      tau( 327) = (   0.6875000   0.6875000   0.0625000  )
       328        C      tau( 328) = (   0.5000000   0.5000000   0.2500000  )
       329        C      tau( 329) = (   0.5625000   0.5625000   0.3125000  )
       330        C      tau( 330) = (   0.5000000   0.6250000   0.3750000  )
       331        C      tau( 331) = (   0.5625000   0.6875000   0.4375000  )
       332        C      tau( 332) = (   0.6250000   0.5000000   0.3750000  )
       333        C      tau( 333) = (   0.6875000   0.5625000   0.4375000  )
       334        C      tau( 334) = (   0.6250000   0.6250000   0.2500000  )
       335        C      tau( 335) = (   0.6875000   0.6875000   0.3125000  )
       336        C      tau( 336) = (   0.5000000   0.5000000   0.5000000  )
       337        C      tau( 337) = (   0.5625000   0.5625000   0.5625000  )
       338        C      tau( 338) = (   0.5000000   0.6250000   0.6250000  )
       339        C      tau( 339) = (   0.5625000   0.6875000   0.6875000  )
       340        C      tau( 340) = (   0.6250000   0.5000000   0.6250000  )
       341        C      tau( 341) = (   0.6875000   0.5625000   0.6875000  )
       342        C      tau( 342) = (   0.6250000   0.6250000   0.5000000  )
       343        C      tau( 343) = (   0.6875000   0.6875000   0.5625000  )
       344        C      tau( 344) = (   0.5000000   0.5000000   0.7500000  )
       345        C      tau( 345) = (   0.5625000   0.5625000   0.8125000  )
       346        C      tau( 346) = (   0.5000000   0.6250000   0.8750000  )
       347        C      tau( 347) = (   0.5625000   0.6875000   0.9375000  )
       348        C      tau( 348) = (   0.6250000   0.5000000   0.8750000  )
       349        C      tau( 349) = (   0.6875000   0.5625000   0.9375000  )
       350        C      tau( 350) = (   0.6250000   0.6250000   0.7500000  )
       351        C      tau( 351) = (   0.6875000   0.6875000   0.8125000  )
       352        C      tau( 352) = (   0.5000000   0.7500000   0.0000000  )
       353        C      tau( 353) = (   0.5625000   0.8125000   0.0625000  )
       354        C      tau( 354) = (   0.5000000   0.8750000   0.1250000  )
       355        C      tau( 355) = (   0.5625000   0.9375000   0.1875000  )
       356        C      tau( 356) = (   0.6250000   0.7500000   0.1250000  )
       357        C      tau( 357) = (   0.6875000   0.8125000   0.1875000  )
       358        C      tau( 358) = (   0.6250000   0.8750000   0.0000000  )
       359        C      tau( 359) = (   0.6875000   0.9375000   0.0625000  )
       360        C      tau( 360) = (   0.5000000   0.7500000   0.2500000  )
       361        C      tau( 361) = (   0.5625000   0.8125000   0.3125000  )
       362        C      tau( 362) = (   0.5000000   0.8750000   0.3750000  )
       363        C      tau( 363) = (   0.5625000   0.9375000   0.4375000  )
       364        C      tau( 364) = (   0.6250000   0.7500000   0.3750000  )
       365        C      tau( 365) = (   0.6875000   0.8125000   0.4375000  )
       366        C      tau( 366) = (   0.6250000   0.8750000   0.2500000  )
       367        C      tau( 367) = (   0.6875000   0.9375000   0.3125000  )
       368        C      tau( 368) = (   0.5000000   0.7500000   0.5000000  )
       369        C      tau( 369) = (   0.5625000   0.8125000   0.5625000  )
       370        C      tau( 370) = (   0.5000000   0.8750000   0.6250000  )
       371        C      tau( 371) = (   0.5625000   0.9375000   0.6875000  )
       372        C      tau( 372) = (   0.6250000   0.7500000   0.6250000  )
       373        C      tau( 373) = (   0.6875000   0.8125000   0.6875000  )
       374        C      tau( 374) = (   0.6250000   0.8750000   0.5000000  )
       375        C      tau( 375) = (   0.6875000   0.9375000   0.5625000  )
       376        C      tau( 376) = (   0.5000000   0.7500000   0.7500000  )
       377        C      tau( 377) = (   0.5625000   0.8125000   0.8125000  )
       378        C      tau( 378) = (   0.5000000   0.8750000   0.8750000  )
       379        C      tau( 379) = (   0.5625000   0.9375000   0.9375000  )
       380        C      tau( 380) = (   0.6250000   0.7500000   0.8750000  )
       381        C      tau( 381) = (   0.6875000   0.8125000   0.9375000  )
       382        C      tau( 382) = (   0.6250000   0.8750000   0.7500000  )
       383        C      tau( 383) = (   0.6875000   0.9375000   0.8125000  )
       384        C      tau( 384) = (   0.7500000   0.0000000   0.0000000  )
       385        C      tau( 385) = (   0.8125000   0.0625000   0.0625000  )
       386        C      tau( 386) = (   0.7500000   0.1250000   0.1250000  )
       387        C      tau( 387) = (   0.8125000   0.1875000   0.1875000  )
       388        C      tau( 388) = (   0.8750000   0.0000000   0.1250000  )
       389        C      tau( 389) = (   0.9375000   0.0625000   0.1875000  )
       390        C      tau( 390) = (   0.8750000   0.1250000   0.0000000  )
       391        C      tau( 391) = (   0.9375000   0.1875000   0.0625000  )
       392        C      tau( 392) = (   0.7500000   0.0000000   0.2500000  )
       393        C      tau( 393) = (   0.8125000   0.0625000   0.3125000  )
       394        C      tau( 394) = (   0.7500000   0.1250000   0.3750000  )
       395        C      tau( 395) = (   0.8125000   0.1875000   0.4375000  )
       396        C      tau( 396) = (   0.8750000   0.0000000   0.3750000  )
       397        C      tau( 397) = (   0.9375000   0.0625000   0.4375000  )
       398        C      tau( 398) = (   0.8750000   0.1250000   0.2500000  )
       399        C      tau( 399) = (   0.9375000   0.1875000   0.3125000  )
       400        C      tau( 400) = (   0.7500000   0.0000000   0.5000000  )
       401        C      tau( 401) = (   0.8125000   0.0625000   0.5625000  )
       402        C      tau( 402) = (   0.7500000   0.1250000   0.6250000  )
       403        C      tau( 403) = (   0.8125000   0.1875000   0.6875000  )
       404        C      tau( 404) = (   0.8750000   0.0000000   0.6250000  )
       405        C      tau( 405) = (   0.9375000   0.0625000   0.6875000  )
       406        C      tau( 406) = (   0.8750000   0.1250000   0.5000000  )
       407        C      tau( 407) = (   0.9375000   0.1875000   0.5625000  )
       408        C      tau( 408) = (   0.7500000   0.0000000   0.7500000  )
       409        C      tau( 409) = (   0.8125000   0.0625000   0.8125000  )
       410        C      tau( 410) = (   0.7500000   0.1250000   0.8750000  )
       411        C      tau( 411) = (   0.8125000   0.1875000   0.9375000  )
       412        C      tau( 412) = (   0.8750000   0.0000000   0.8750000  )
       413        C      tau( 413) = (   0.9375000   0.0625000   0.9375000  )
       414        C      tau( 414) = (   0.8750000   0.1250000   0.7500000  )
       415        C      tau( 415) = (   0.9375000   0.1875000   0.8125000  )
       416        C      tau( 416) = (   0.7500000   0.2500000   0.0000000  )
       417        C      tau( 417) = (   0.8125000   0.3125000   0.0625000  )
       418        C      tau( 418) = (   0.7500000   0.3750000   0.1250000  )
       419        C      tau( 419) = (   0.8125000   0.4375000   0.1875000  )
       420        C      tau( 420) = (   0.8750000   0.2500000   0.1250000  )
       421        C      tau( 421) = (   0.9375000   0.3125000   0.1875000  )
       422        C      tau( 422) = (   0.8750000   0.3750000   0.0000000  )
       423        C      tau( 423) = (   0.9375000   0.4375000   0.0625000  )
       424        C      tau( 424) = (   0.7500000   0.2500000   0.2500000  )
       425        C      tau( 425) = (   0.8125000   0.3125000   0.3125000  )
       426        C      tau( 426) = (   0.7500000   0.3750000   0.3750000  )
       427        C      tau( 427) = (   0.8125000   0.4375000   0.4375000  )
       428        C      tau( 428) = (   0.8750000   0.2500000   0.3750000  )
       429        C      tau( 429) = (   0.9375000   0.3125000   0.4375000  )
       430        C      tau( 430) = (   0.8750000   0.3750000   0.2500000  )
       431        C      tau( 431) = (   0.9375000   0.4375000   0.3125000  )
       432        C      tau( 432) = (   0.7500000   0.2500000   0.5000000  )
       433        C      tau( 433) = (   0.8125000   0.3125000   0.5625000  )
       434        C      tau( 434) = (   0.7500000   0.3750000   0.6250000  )
       435        C      tau( 435) = (   0.8125000   0.4375000   0.6875000  )
       436        C      tau( 436) = (   0.8750000   0.2500000   0.6250000  )
       437        C      tau( 437) = (   0.9375000   0.3125000   0.6875000  )
       438        C      tau( 438) = (   0.8750000   0.3750000   0.5000000  )
       439        C      tau( 439) = (   0.9375000   0.4375000   0.5625000  )
       440        C      tau( 440) = (   0.7500000   0.2500000   0.7500000  )
       441        C      tau( 441) = (   0.8125000   0.3125000   0.8125000  )
       442        C      tau( 442) = (   0.7500000   0.3750000   0.8750000  )
       443        C      tau( 443) = (   0.8125000   0.4375000   0.9375000  )
       444        C      tau( 444) = (   0.8750000   0.2500000   0.8750000  )
       445        C      tau( 445) = (   0.9375000   0.3125000   0.9375000  )
       446        C      tau( 446) = (   0.8750000   0.3750000   0.7500000  )
       447        C      tau( 447) = (   0.9375000   0.4375000   0.8125000  )
       448        C      tau( 448) = (   0.7500000   0.5000000   0.0000000  )
       449        C      tau( 449) = (   0.8125000   0.5625000   0.0625000  )
       450        C      tau( 450) = (   0.7500000   0.6250000   0.1250000  )
       451        C      tau( 451) = (   0.8125000   0.6875000   0.1875000  )
       452        C      tau( 452) = (   0.8750000   0.5000000   0.1250000  )
       453        C      tau( 453) = (   0.9375000   0.5625000   0.1875000  )
       454        C      tau( 454) = (   0.8750000   0.6250000   0.0000000  )
       455        C      tau( 455) = (   0.9375000   0.6875000   0.0625000  )
       456        C      tau( 456) = (   0.7500000   0.5000000   0.2500000  )
       457        C      tau( 457) = (   0.8125000   0.5625000   0.3125000  )
       458        C      tau( 458) = (   0.7500000   0.6250000   0.3750000  )
       459        C      tau( 459) = (   0.8125000   0.6875000   0.4375000  )
       460        C      tau( 460) = (   0.8750000   0.5000000   0.3750000  )
       461        C      tau( 461) = (   0.9375000   0.5625000   0.4375000  )
       462        C      tau( 462) = (   0.8750000   0.6250000   0.2500000  )
       463        C      tau( 463) = (   0.9375000   0.6875000   0.3125000  )
       464        C      tau( 464) = (   0.7500000   0.5000000   0.5000000  )
       465        C      tau( 465) = (   0.8125000   0.5625000   0.5625000  )
       466        C      tau( 466) = (   0.7500000   0.6250000   0.6250000  )
       467        C      tau( 467) = (   0.8125000   0.6875000   0.6875000  )
       468        C      tau( 468) = (   0.8750000   0.5000000   0.6250000  )
       469        C      tau( 469) = (   0.9375000   0.5625000   0.6875000  )
       470        C      tau( 470) = (   0.8750000   0.6250000   0.5000000  )
       471        C      tau( 471) = (   0.9375000   0.6875000   0.5625000  )
       472        C      tau( 472) = (   0.7500000   0.5000000   0.7500000  )
       473        C      tau( 473) = (   0.8125000   0.5625000   0.8125000  )
       474        C      tau( 474) = (   0.7500000   0.6250000   0.8750000  )
       475        C      tau( 475) = (   0.8125000   0.6875000   0.9375000  )
       476        C      tau( 476) = (   0.8750000   0.5000000   0.8750000  )
       477        C      tau( 477) = (   0.9375000   0.5625000   0.9375000  )
       478        C      tau( 478) = (   0.8750000   0.6250000   0.7500000  )
       479        C      tau( 479) = (   0.9375000   0.6875000   0.8125000  )
       480        C      tau( 480) = (   0.7500000   0.7500000   0.0000000  )
       481        C      tau( 481) = (   0.8125000   0.8125000   0.0625000  )
       482        C      tau( 482) = (   0.7500000   0.8750000   0.1250000  )
       483        C      tau( 483) = (   0.8125000   0.9375000   0.1875000  )
       484        C      tau( 484) = (   0.8750000   0.7500000   0.1250000  )
       485        C      tau( 485) = (   0.9375000   0.8125000   0.1875000  )
       486        C      tau( 486) = (   0.8750000   0.8750000   0.0000000  )
       487        C      tau( 487) = (   0.9375000   0.9375000   0.0625000  )
       488        C      tau( 488) = (   0.7500000   0.7500000   0.2500000  )
       489        C      tau( 489) = (   0.8125000   0.8125000   0.3125000  )
       490        C      tau( 490) = (   0.7500000   0.8750000   0.3750000  )
       491        C      tau( 491) = (   0.8125000   0.9375000   0.4375000  )
       492        C      tau( 492) = (   0.8750000   0.7500000   0.3750000  )
       493        C      tau( 493) = (   0.9375000   0.8125000   0.4375000  )
       494        C      tau( 494) = (   0.8750000   0.8750000   0.2500000  )
       495        C      tau( 495) = (   0.9375000   0.9375000   0.3125000  )
       496        C      tau( 496) = (   0.7500000   0.7500000   0.5000000  )
       497        C      tau( 497) = (   0.8125000   0.8125000   0.5625000  )
       498        C      tau( 498) = (   0.7500000   0.8750000   0.6250000  )
       499        C      tau( 499) = (   0.8125000   0.9375000   0.6875000  )
       500        C      tau( 500) = (   0.8750000   0.7500000   0.6250000  )
       501        C      tau( 501) = (   0.9375000   0.8125000   0.6875000  )
       502        C      tau( 502) = (   0.8750000   0.8750000   0.5000000  )
       503        C      tau( 503) = (   0.9375000   0.9375000   0.5625000  )
       504        C      tau( 504) = (   0.7500000   0.7500000   0.7500000  )
       505        C      tau( 505) = (   0.8125000   0.8125000   0.8125000  )
       506        C      tau( 506) = (   0.7500000   0.8750000   0.8750000  )
       507        C      tau( 507) = (   0.8125000   0.9375000   0.9375000  )
       508        C      tau( 508) = (   0.8750000   0.7500000   0.8750000  )
       509        C      tau( 509) = (   0.9375000   0.8125000   0.9375000  )
       510        C      tau( 510) = (   0.8750000   0.8750000   0.7500000  )
       511        C      tau( 511) = (   0.9375000   0.9375000   0.8125000  )

     number of k points=     1
                       cart. coord. in units 2pi/alat
        k(    1) = (   0.0000000   0.0000000   0.0000000), wk =   2.0000000

     Dense  grid:   468093 G-vectors     FFT dimensions: ( 128, 128, 125)

     Estimated max dynamical RAM per process >       8.49 GB

     Initial potential from superposition of free atoms

     starting charge    2041.4445, renormalised to    2046.0000
     Starting wfcs are random

     total cpu time spent up to now is        7.3 secs

     Self-consistent Calculation

     iteration #  1     ecut=    50.00 Ry     beta= 0.70
     Davidson diagonalization with overlap
     ethr =  1.00E-02,  avg # of iterations = 12.0

     total cpu time spent up to now is       12.0 secs

     total energy              =   -5820.26626229 Ry
     estimated scf accuracy    <      27.49132374 Ry

     iteration #  2     ecut=    50.00 Ry     beta= 0.70
     Davidson diagonalization with overlap
     ethr =  1.34E-03,  avg # of iterations =  8.0

     total cpu time spent up to now is       14.3 secs

     total energy              =   -5822.93769457 Ry
     estimated scf accuracy    <       3.14146203 Ry

     iteration #  3     ecut=    50.00 Ry     beta= 0.70
     Davidson diagonalization with overlap
     ethr =  1.54E-04,  avg # of iterations = 13.0

     total cpu time spent up to now is       17.4 secs

     total energy              =   -5823.20028378 Ry
     estimated scf accuracy    <      10.88311051 Ry

     iteration #  4     ecut=    50.00 Ry     beta= 0.70
     Davidson diagonalization with overlap
     ethr =  1.54E-04,  avg # of iterations =  9.0

     total cpu time spent up to now is       19.8 secs

     total energy              =   -5824.75696226 Ry
     estimated scf accuracy    <       0.76833069 Ry

     iteration #  5     ecut=    50.00 Ry     beta= 0.70
     Davidson diagonalization with overlap
     ethr =  3.76E-05,  avg # of iterations = 11.0

     total cpu time spent up to now is       21.8 secs

     total energy              =   -5824.77618387 Ry
     estimated scf accuracy    <       0.44223125 Ry

     iteration #  6     ecut=    50.00 Ry     beta= 0.70
     Davidson diagonalization with overlap
     ethr =  2.16E-05,  avg # of iterations = 13.0

     total cpu time spent up to now is       23.8 secs

     total energy              =   -5824.82258705 Ry
     estimated scf accuracy    <       0.31193052 Ry

     iteration #  7     ecut=    50.00 Ry     beta= 0.70
     Davidson diagonalization with overlap
     ethr =  1.52E-05,  avg # of iterations = 15.0

     total cpu time spent up to now is       25.9 secs

     total energy              =   -5824.80131063 Ry
     estimated scf accuracy    <       0.16980870 Ry

     iteration #  8     ecut=    50.00 Ry     beta= 0.70
     Davidson diagonalization with overlap
     ethr =  8.30E-06,  avg # of iterations = 14.0

     total cpu time spent up to now is       27.9 secs

     total energy              =   -5824.85231223 Ry
     estimated scf accuracy    <       0.28664374 Ry

     iteration #  9     ecut=    50.00 Ry     beta= 0.70
     Davidson diagonalization with overlap
     ethr =  8.30E-06,  avg # of iterations =  5.0

     total cpu time spent up to now is       29.6 secs

     total energy              =   -5824.83226707 Ry
     estimated scf accuracy    <       0.23775929 Ry

     iteration # 10     ecut=    50.00 Ry     beta= 0.70
     Davidson diagonalization with overlap
     ethr =  8.30E-06,  avg # of iterations =  5.0

     total cpu time spent up to now is       31.3 secs

     total energy              =   -5824.82246106 Ry
     estimated scf accuracy    <       0.16819771 Ry

     iteration # 11     ecut=    50.00 Ry     beta= 0.70
     Davidson diagonalization with overlap
     ethr =  8.22E-06,  avg # of iterations =  4.0

     total cpu time spent up to now is       33.0 secs

     total energy              =   -5824.81680862 Ry
     estimated scf accuracy    <       0.12907887 Ry

     iteration # 12     ecut=    50.00 Ry     beta= 0.70
     Davidson diagonalization with overlap
     ethr =  6.31E-06,  avg # of iterations = 16.0

     total cpu time spent up to now is       35.1 secs

     total energy              =   -5824.84861033 Ry
     estimated scf accuracy    <       0.26355818 Ry

     iteration # 13     ecut=    50.00 Ry     beta= 0.70
     Davidson diagonalization with overlap
     ethr =  6.31E-06,  avg # of iterations =  1.0

     total cpu time spent up to now is       36.5 secs

     total energy              =   -5824.84430941 Ry
     estimated scf accuracy    <       0.25514323 Ry

     iteration # 14     ecut=    50.00 Ry     beta= 0.70
     Davidson diagonalization with overlap
     ethr =  6.31E-06,  avg # of iterations =  3.0

     total cpu time spent up to now is       38.1 secs

     total energy              =   -5824.83083239 Ry
     estimated scf accuracy    <       0.23185158 Ry

     iteration # 15     ecut=    50.00 Ry     beta= 0.70
     Davidson diagonalization with overlap
     ethr =  6.31E-06,  avg # of iterations = 14.0

     total cpu time spent up to now is       40.2 secs

     total energy              =   -5824.83297165 Ry
     estimated scf accuracy    <       0.16582629 Ry

     iteration # 16     ecut=    50.00 Ry     beta= 0.70
     Davidson diagonalization with overlap
     ethr =  6.31E-06,  avg # of iterations = 15.0

     total cpu time spent up to now is       42.2 secs

     total energy              =   -5824.83597509 Ry
     estimated scf accuracy    <       0.17162083 Ry

     iteration # 17     ecut=    50.00 Ry     beta= 0.70
     Davidson diagonalization with overlap
     ethr =  6.31E-06,  avg # of iterations =  1.0

     total cpu time spent up to now is       43.7 secs

     total energy              =   -5824.83377022 Ry
     estimated scf accuracy    <       0.16992699 Ry

     iteration # 18     ecut=    50.00 Ry     beta= 0.70
     Davidson diagonalization with overlap
     ethr =  6.31E-06,  avg # of iterations =  1.0

     total cpu time spent up to now is       45.2 secs

     total energy              =   -5824.83609851 Ry
     estimated scf accuracy    <       0.16084171 Ry

     iteration # 19     ecut=    50.00 Ry     beta= 0.70
     Davidson diagonalization with overlap
     ethr =  6.31E-06,  avg # of iterations =  1.0

     total cpu time spent up to now is       46.6 secs

     total energy              =   -5824.83680373 Ry
     estimated scf accuracy    <       0.16722639 Ry

     iteration # 20     ecut=    50.00 Ry     beta= 0.70
     Davidson diagonalization with overlap
     ethr =  6.31E-06,  avg # of iterations =  1.0

     total cpu time spent up to now is       48.1 secs

     total energy              =   -5824.86240849 Ry
     estimated scf accuracy    <       0.17095304 Ry

     iteration # 21     ecut=    50.00 Ry     beta= 0.70
     Davidson diagonalization with overlap
     ethr =  6.31E-06,  avg # of iterations = 10.0

     total cpu time spent up to now is       50.0 secs

     total energy              =   -5824.88096406 Ry
     estimated scf accuracy    <       0.28521990 Ry

     iteration # 22     ecut=    50.00 Ry     beta= 0.70
     Davidson diagonalization with overlap
     ethr =  6.31E-06,  avg # of iterations =  7.0

     total cpu time spent up to now is       51.7 secs

     total energy              =   -5824.84515977 Ry
     estimated scf accuracy    <       0.35716229 Ry

     iteration # 23     ecut=    50.00 Ry     beta= 0.70
     Davidson diagonalization with overlap
     ethr =  6.31E-06,  avg # of iterations =  9.0

     total cpu time spent up to now is       53.6 secs

     total energy              =   -5824.76090335 Ry
     estimated scf accuracy    <       0.21909706 Ry

     iteration # 24     ecut=    50.00 Ry     beta= 0.70
     Davidson diagonalization with overlap
     ethr =  6.31E-06,  avg # of iterations = 13.0

     total cpu time spent up to now is       55.9 secs

     total energy              =   -5824.87868447 Ry
     estimated scf accuracy    <       0.69817096 Ry

     iteration # 25     ecut=    50.00 Ry     beta= 0.70
     Davidson diagonalization with overlap
     ethr =  6.31E-06,  avg # of iterations =  9.0

     total cpu time spent up to now is       57.7 secs

     total energy              =   -5824.85655242 Ry
     estimated scf accuracy    <       0.39352246 Ry

     iteration # 26     ecut=    50.00 Ry     beta= 0.70
     Davidson diagonalization with overlap
     ethr =  6.31E-06,  avg # of iterations =  9.0

     total cpu time spent up to now is       59.5 secs

     total energy              =   -5824.84919176 Ry
     estimated scf accuracy    <       0.26127820 Ry

     iteration # 27     ecut=    50.00 Ry     beta= 0.70
     Davidson diagonalization with overlap
     ethr =  6.31E-06,  avg # of iterations =  2.0

     total cpu time spent up to now is       61.1 secs

     total energy              =   -5824.83423956 Ry
     estimated scf accuracy    <       0.22896449 Ry

     iteration # 28     ecut=    50.00 Ry     beta= 0.70
     Davidson diagonalization with overlap
     ethr =  6.31E-06,  avg # of iterations =  6.0

     total cpu time spent up to now is       62.8 secs

     total energy              =   -5824.82787865 Ry
     estimated scf accuracy    <       0.16992186 Ry

     iteration # 29     ecut=    50.00 Ry     beta= 0.70
     Davidson diagonalization with overlap
     ethr =  6.31E-06,  avg # of iterations =  2.0

     total cpu time spent up to now is       64.4 secs

     total energy              =   -5824.79729635 Ry
     estimated scf accuracy    <       0.14595740 Ry

     iteration # 30     ecut=    50.00 Ry     beta= 0.70
     Davidson diagonalization with overlap
     ethr =  6.31E-06,  avg # of iterations = 15.0

     total cpu time spent up to now is       66.5 secs

     total energy              =   -5824.86387455 Ry
     estimated scf accuracy    <       0.42107030 Ry

     iteration # 31     ecut=    50.00 Ry     beta= 0.70
     Davidson diagonalization with overlap
     ethr =  6.31E-06,  avg # of iterations =  6.0

     total cpu time spent up to now is       68.2 secs

     total energy              =   -5824.84252188 Ry
     estimated scf accuracy    <       0.33363088 Ry

     iteration # 32     ecut=    50.00 Ry     beta= 0.70
     Davidson diagonalization with overlap
     ethr =  6.31E-06,  avg # of iterations =  7.0

     total cpu time spent up to now is       69.9 secs

     total energy              =   -5824.83647287 Ry
     estimated scf accuracy    <       0.22006795 Ry

     iteration # 33     ecut=    50.00 Ry     beta= 0.70
     Davidson diagonalization with overlap
     ethr =  6.31E-06,  avg # of iterations =  6.0

     total cpu time spent up to now is       71.6 secs

     total energy              =   -5824.83396430 Ry
     estimated scf accuracy    <       0.17899036 Ry

     iteration # 34     ecut=    50.00 Ry     beta= 0.70
     Davidson diagonalization with overlap
     ethr =  6.31E-06,  avg # of iterations =  1.0

     total cpu time spent up to now is       73.1 secs

     total energy              =   -5824.83719356 Ry
     estimated scf accuracy    <       0.16820183 Ry

     iteration # 35     ecut=    50.00 Ry     beta= 0.70
     Davidson diagonalization with overlap
     ethr =  6.31E-06,  avg # of iterations =  1.0

     total cpu time spent up to now is       74.6 secs

     total energy              =   -5824.84022899 Ry
     estimated scf accuracy    <       0.17454603 Ry

     iteration # 36     ecut=    50.00 Ry     beta= 0.70
     Davidson diagonalization with overlap
     ethr =  6.31E-06,  avg # of iterations =  2.0

     total cpu time spent up to now is       76.2 secs

     total energy              =   -5824.84323712 Ry
     estimated scf accuracy    <       0.18650901 Ry

     iteration # 37     ecut=    50.00 Ry     beta= 0.70
     Davidson diagonalization with overlap
     ethr =  6.31E-06,  avg # of iterations =  3.0

     total cpu time spent up to now is       77.8 secs

     total energy              =   -5824.84399736 Ry
     estimated scf accuracy    <       0.20166001 Ry

     iteration # 38     ecut=    50.00 Ry     beta= 0.70
     Davidson diagonalization with overlap
     ethr =  6.31E-06,  avg # of iterations =  1.0

     total cpu time spent up to now is       79.3 secs

     total energy              =   -5824.75474565 Ry
     estimated scf accuracy    <       0.20475319 Ry

     iteration # 39     ecut=    50.00 Ry     beta= 0.70
     Davidson diagonalization with overlap
     ethr =  6.31E-06,  avg # of iterations = 13.0

     total cpu time spent up to now is       81.6 secs

     total energy              =   -5824.88859694 Ry
     estimated scf accuracy    <       0.69017530 Ry

     iteration # 40     ecut=    50.00 Ry     beta= 0.70
     Davidson diagonalization with overlap
     ethr =  6.31E-06,  avg # of iterations =  8.0

     total cpu time spent up to now is       83.4 secs

     total energy              =   -5824.86826008 Ry
     estimated scf accuracy    <       0.41899800 Ry

     iteration # 41     ecut=    50.00 Ry     beta= 0.70
     Davidson diagonalization with overlap
     ethr =  6.31E-06,  avg # of iterations =  6.0

     total cpu time spent up to now is       85.1 secs

     total energy              =   -5824.86740972 Ry
     estimated scf accuracy    <       0.31946399 Ry

     iteration # 42     ecut=    50.00 Ry     beta= 0.70
     Davidson diagonalization with overlap
     ethr =  6.31E-06,  avg # of iterations =  1.0

     total cpu time spent up to now is       86.6 secs

     total energy              =   -5824.86742829 Ry
     estimated scf accuracy    <       0.31046087 Ry

     iteration # 43     ecut=    50.00 Ry     beta= 0.70
     Davidson diagonalization with overlap
     ethr =  6.31E-06,  avg # of iterations =  1.0

     total cpu time spent up to now is       88.1 secs

     total energy              =   -5824.85366304 Ry
     estimated scf accuracy    <       0.30563653 Ry

     iteration # 44     ecut=    50.00 Ry     beta= 0.70
     Davidson diagonalization with overlap
     ethr =  6.31E-06,  avg # of iterations =  8.0

     total cpu time spent up to now is       89.9 secs

     total energy              =   -5824.83808276 Ry
     estimated scf accuracy    <       0.24003309 Ry

     iteration # 45     ecut=    50.00 Ry     beta= 0.70
     Davidson diagonalization with overlap
     ethr =  6.31E-06,  avg # of iterations =  5.0

     total cpu time spent up to now is       91.6 secs

     total energy              =   -5824.83192819 Ry
     estimated scf accuracy    <       0.18232175 Ry

     iteration # 46     ecut=    50.00 Ry     beta= 0.70
     Davidson diagonalization with overlap
     ethr =  6.31E-06,  avg # of iterations =  2.0

     total cpu time spent up to now is       93.1 secs

     total energy              =   -5824.83120197 Ry
     estimated scf accuracy    <       0.16035916 Ry

     iteration # 47     ecut=    50.00 Ry     beta= 0.70
     Davidson diagonalization with overlap
     ethr =  6.31E-06,  avg # of iterations =  1.0

     total cpu time spent up to now is       94.6 secs

     total energy              =   -5824.75059332 Ry
     estimated scf accuracy    <       0.15459077 Ry

     iteration # 48     ecut=    50.00 Ry     beta= 0.70
     Davidson diagonalization with overlap
     ethr =  6.31E-06,  avg # of iterations = 13.0

     total cpu time spent up to now is       97.0 secs

     total energy              =   -5824.90720250 Ry
     estimated scf accuracy    <       1.06433844 Ry

     iteration # 49     ecut=    50.00 Ry     beta= 0.70
     Davidson diagonalization with overlap
     ethr =  6.31E-06,  avg # of iterations =  7.0

     total cpu time spent up to now is       98.8 secs

     total energy              =   -5824.87190350 Ry
     estimated scf accuracy    <       0.61669608 Ry

     iteration # 50     ecut=    50.00 Ry     beta= 0.70
     Davidson diagonalization with overlap
     ethr =  6.31E-06,  avg # of iterations =  7.0

     total cpu time spent up to now is      100.6 secs

     total energy              =   -5824.85661996 Ry
     estimated scf accuracy    <       0.40671892 Ry

     iteration # 51     ecut=    50.00 Ry     beta= 0.70
     Davidson diagonalization with overlap
     ethr =  6.31E-06,  avg # of iterations =  6.0

     total cpu time spent up to now is      102.3 secs

     total energy              =   -5824.82448188 Ry
     estimated scf accuracy    <       0.31053998 Ry

     iteration # 52     ecut=    50.00 Ry     beta= 0.70
     Davidson diagonalization with overlap
     ethr =  6.31E-06,  avg # of iterations = 14.0

     total cpu time spent up to now is      104.3 secs

     total energy              =   -5824.83729882 Ry
     estimated scf accuracy    <       0.15358885 Ry

     iteration # 53     ecut=    50.00 Ry     beta= 0.70
     Davidson diagonalization with overlap
     ethr =  6.31E-06,  avg # of iterations =  1.0

     total cpu time spent up to now is      105.8 secs

     total energy              =   -5824.83358981 Ry
     estimated scf accuracy    <       0.16048288 Ry

     iteration # 54     ecut=    50.00 Ry     beta= 0.70
     Davidson diagonalization with overlap
     ethr =  6.31E-06,  avg # of iterations =  1.0

     total cpu time spent up to now is      107.3 secs

     total energy              =   -5824.82619298 Ry
     estimated scf accuracy    <       0.15328220 Ry

     iteration # 55     ecut=    50.00 Ry     beta= 0.70
     Davidson diagonalization with overlap
     ethr =  6.31E-06,  avg # of iterations = 17.0

     total cpu time spent up to now is      109.4 secs

     total energy              =   -5824.84300033 Ry
     estimated scf accuracy    <       0.19650234 Ry

     iteration # 56     ecut=    50.00 Ry     beta= 0.70
     Davidson diagonalization with overlap
     ethr =  6.31E-06,  avg # of iterations =  1.0

     total cpu time spent up to now is      110.9 secs

     total energy              =   -5824.88204446 Ry
     estimated scf accuracy    <       0.20403633 Ry

     iteration # 57     ecut=    50.00 Ry     beta= 0.70
     Davidson diagonalization with overlap
     ethr =  6.31E-06,  avg # of iterations =  8.0

     total cpu time spent up to now is      112.7 secs

     total energy              =   -5824.88337175 Ry
     estimated scf accuracy    <       0.46078121 Ry

     iteration # 58     ecut=    50.00 Ry     beta= 0.70
     Davidson diagonalization with overlap
     ethr =  6.31E-06,  avg # of iterations =  2.0

     total cpu time spent up to now is      114.3 secs

     total energy              =   -5824.90241813 Ry
     estimated scf accuracy    <       0.44355730 Ry

     iteration # 59     ecut=    50.00 Ry     beta= 0.70
     Davidson diagonalization with overlap
     ethr =  6.31E-06,  avg # of iterations =  5.0

     total cpu time spent up to now is      116.0 secs

     total energy              =   -5824.87170291 Ry
     estimated scf accuracy    <       0.52622121 Ry

     iteration # 60     ecut=    50.00 Ry     beta= 0.70
     Davidson diagonalization with overlap
     ethr =  6.31E-06,  avg # of iterations =  6.0

     total cpu time spent up to now is      117.7 secs

     total energy              =   -5824.84886221 Ry
     estimated scf accuracy    <       0.39724765 Ry

     iteration # 61     ecut=    50.00 Ry     beta= 0.70
     Davidson diagonalization with overlap
     ethr =  6.31E-06,  avg # of iterations =  9.0

     total cpu time spent up to now is      119.5 secs

     total energy              =   -5824.80973333 Ry
     estimated scf accuracy    <       0.27280133 Ry

     iteration # 62     ecut=    50.00 Ry     beta= 0.70
     Davidson diagonalization with overlap
     ethr =  6.31E-06,  avg # of iterations = 14.0

     total cpu time spent up to now is      121.6 secs

     total energy              =   -5824.84036341 Ry
     estimated scf accuracy    <       0.24713743 Ry

     iteration # 63     ecut=    50.00 Ry     beta= 0.70
     Davidson diagonalization with overlap
     ethr =  6.31E-06,  avg # of iterations =  6.0

     total cpu time spent up to now is      123.3 secs

     total energy              =   -5824.83156468 Ry
     estimated scf accuracy    <       0.19352951 Ry

     iteration # 64     ecut=    50.00 Ry     beta= 0.70
     Davidson diagonalization with overlap
     ethr =  6.31E-06,  avg # of iterations = 13.0

     total cpu time spent up to now is      125.2 secs

     total energy              =   -5824.83241880 Ry
     estimated scf accuracy    <       0.15987150 Ry

     iteration # 65     ecut=    50.00 Ry     beta= 0.70
     Davidson diagonalization with overlap
     ethr =  6.31E-06,  avg # of iterations =  1.0

     total cpu time spent up to now is      126.7 secs

     total energy              =   -5824.83143119 Ry
     estimated scf accuracy    <       0.15331816 Ry

     iteration # 66     ecut=    50.00 Ry     beta= 0.70
     Davidson diagonalization with overlap
     ethr =  6.31E-06,  avg # of iterations = 14.0

     total cpu time spent up to now is      128.7 secs

     total energy              =   -5824.84064798 Ry
     estimated scf accuracy    <       0.23306228 Ry

     iteration # 67     ecut=    50.00 Ry     beta= 0.70
     Davidson diagonalization with overlap
     ethr =  6.31E-06,  avg # of iterations =  3.0

     total cpu time spent up to now is      130.3 secs

     total energy              =   -5824.83380435 Ry
     estimated scf accuracy    <       0.21184981 Ry

     iteration # 68     ecut=    50.00 Ry     beta= 0.70
     Davidson diagonalization with overlap
     ethr =  6.31E-06,  avg # of iterations = 11.0

     total cpu time spent up to now is      132.2 secs

     total energy              =   -5824.83240836 Ry
     estimated scf accuracy    <       0.16199925 Ry

     iteration # 69     ecut=    50.00 Ry     beta= 0.70
     Davidson diagonalization with overlap
     ethr =  6.31E-06,  avg # of iterations =  1.0

     total cpu time spent up to now is      133.7 secs

     total energy              =   -5824.83159028 Ry
     estimated scf accuracy    <       0.15332998 Ry

     iteration # 70     ecut=    50.00 Ry     beta= 0.70
     Davidson diagonalization with overlap
     ethr =  6.31E-06,  avg # of iterations =  2.0

     total cpu time spent up to now is      135.3 secs

     total energy              =   -5824.83124503 Ry
     estimated scf accuracy    <       0.14780357 Ry

     iteration # 71     ecut=    50.00 Ry     beta= 0.70
     Davidson diagonalization with overlap
     ethr =  6.31E-06,  avg # of iterations =  1.0

     total cpu time spent up to now is      136.8 secs

     total energy              =   -5824.83145648 Ry
     estimated scf accuracy    <       0.14498169 Ry

     iteration # 72     ecut=    50.00 Ry     beta= 0.70
     Davidson diagonalization with overlap
     ethr =  6.31E-06,  avg # of iterations =  1.0

     total cpu time spent up to now is      138.2 secs

     total energy              =   -5824.82239821 Ry
     estimated scf accuracy    <       0.14454038 Ry

     iteration # 73     ecut=    50.00 Ry     beta= 0.70
     Davidson diagonalization with overlap
     ethr =  6.31E-06,  avg # of iterations = 14.0

     total cpu time spent up to now is      140.3 secs

     total energy              =   -5824.84153429 Ry
     estimated scf accuracy    <       0.22032553 Ry

     iteration # 74     ecut=    50.00 Ry     beta= 0.70
     Davidson diagonalization with overlap
     ethr =  6.31E-06,  avg # of iterations =  2.0

     total cpu time spent up to now is      141.8 secs

     total energy              =   -5824.82273821 Ry
     estimated scf accuracy    <       0.19694554 Ry

     iteration # 75     ecut=    50.00 Ry     beta= 0.70
     Davidson diagonalization with overlap
     ethr =  6.31E-06,  avg # of iterations = 15.0

     total cpu time spent up to now is      143.9 secs

     total energy              =   -5824.84022094 Ry
     estimated scf accuracy    <       0.19904123 Ry

     iteration # 76     ecut=    50.00 Ry     beta= 0.70
     Davidson diagonalization with overlap
     ethr =  6.31E-06,  avg # of iterations =  1.0

     total cpu time spent up to now is      145.4 secs

     total energy              =   -5824.83775185 Ry
     estimated scf accuracy    <       0.19523837 Ry

     iteration # 77     ecut=    50.00 Ry     beta= 0.70
     Davidson diagonalization with overlap
     ethr =  6.31E-06,  avg # of iterations =  1.0

     total cpu time spent up to now is      146.8 secs

     total energy              =   -5824.83290146 Ry
     estimated scf accuracy    <       0.18597003 Ry

     iteration # 78     ecut=    50.00 Ry     beta= 0.70
     Davidson diagonalization with overlap
     ethr =  6.31E-06,  avg # of iterations =  3.0

     total cpu time spent up to now is      148.4 secs

     total energy              =   -5824.83048956 Ry
     estimated scf accuracy    <       0.16462259 Ry

     iteration # 79     ecut=    50.00 Ry     beta= 0.70
     Davidson diagonalization with overlap
     ethr =  6.31E-06,  avg # of iterations =  6.0

     total cpu time spent up to now is      150.2 secs

     total energy              =   -5824.82990439 Ry
     estimated scf accuracy    <       0.14031457 Ry

     iteration # 80     ecut=    50.00 Ry     beta= 0.70
     Davidson diagonalization with overlap
     ethr =  6.31E-06,  avg # of iterations =  2.0

     total cpu time spent up to now is      151.7 secs

     total energy              =   -5824.82924334 Ry
     estimated scf accuracy    <       0.13714027 Ry

     iteration # 81     ecut=    50.00 Ry     beta= 0.70
     Davidson diagonalization with overlap
     ethr =  6.31E-06,  avg # of iterations =  1.0

     total cpu time spent up to now is      153.2 secs

     total energy              =   -5824.83747711 Ry
     estimated scf accuracy    <       0.13342951 Ry

     iteration # 82     ecut=    50.00 Ry     beta= 0.70
     Davidson diagonalization with overlap
     ethr =  6.31E-06,  avg # of iterations =  6.0

     total cpu time spent up to now is      154.9 secs

     total energy              =   -5824.82091620 Ry
     estimated scf accuracy    <       0.17862784 Ry

     iteration # 83     ecut=    50.00 Ry     beta= 0.70
     Davidson diagonalization with overlap
     ethr =  6.31E-06,  avg # of iterations = 15.0

     total cpu time spent up to now is      157.0 secs

     total energy              =   -5824.84328761 Ry
     estimated scf accuracy    <       0.19523817 Ry

     iteration # 84     ecut=    50.00 Ry     beta= 0.70
     Davidson diagonalization with overlap
     ethr =  6.31E-06,  avg # of iterations =  1.0

     total cpu time spent up to now is      158.5 secs

     total energy              =   -5824.83671601 Ry
     estimated scf accuracy    <       0.19292886 Ry

     iteration # 85     ecut=    50.00 Ry     beta= 0.70
     Davidson diagonalization with overlap
     ethr =  6.31E-06,  avg # of iterations =  2.0

     total cpu time spent up to now is      160.0 secs

     total energy              =   -5824.82725128 Ry
     estimated scf accuracy    <       0.17417625 Ry

     iteration # 86     ecut=    50.00 Ry     beta= 0.70
     Davidson diagonalization with overlap
     ethr =  6.31E-06,  avg # of iterations = 16.0

     total cpu time spent up to now is      162.1 secs

     total energy              =   -5824.82565658 Ry
     estimated scf accuracy    <       0.18257835 Ry

     iteration # 87     ecut=    50.00 Ry     beta= 0.70
     Davidson diagonalization with overlap
     ethr =  6.31E-06,  avg # of iterations = 14.0

     total cpu time spent up to now is      164.1 secs

     total energy              =   -5824.84435679 Ry
     estimated scf accuracy    <       0.17524780 Ry

     iteration # 88     ecut=    50.00 Ry     beta= 0.70
     Davidson diagonalization with overlap
     ethr =  6.31E-06,  avg # of iterations =  1.0

     total cpu time spent up to now is      165.6 secs

     total energy              =   -5824.84428791 Ry
     estimated scf accuracy    <       0.19312465 Ry

     iteration # 89     ecut=    50.00 Ry     beta= 0.70
     Davidson diagonalization with overlap
     ethr =  6.31E-06,  avg # of iterations =  1.0

     total cpu time spent up to now is      167.1 secs

     total energy              =   -5824.84381184 Ry
     estimated scf accuracy    <       0.19338990 Ry

     iteration # 90     ecut=    50.00 Ry     beta= 0.70
     Davidson diagonalization with overlap
     ethr =  6.31E-06,  avg # of iterations =  1.0

     total cpu time spent up to now is      168.6 secs

     total energy              =   -5824.83115899 Ry
     estimated scf accuracy    <       0.19366280 Ry

     iteration # 91     ecut=    50.00 Ry     beta= 0.70
     Davidson diagonalization with overlap
     ethr =  6.31E-06,  avg # of iterations =  3.0

     total cpu time spent up to now is      170.2 secs

     total energy              =   -5824.79941928 Ry
     estimated scf accuracy    <       0.15519037 Ry

     iteration # 92     ecut=    50.00 Ry     beta= 0.70
     Davidson diagonalization with overlap
     ethr =  6.31E-06,  avg # of iterations = 14.0

     total cpu time spent up to now is      172.2 secs

     total energy              =   -5824.86681833 Ry
     estimated scf accuracy    <       0.37027142 Ry

     iteration # 93     ecut=    50.00 Ry     beta= 0.70
     Davidson diagonalization with overlap
     ethr =  6.31E-06,  avg # of iterations =  2.0

     total cpu time spent up to now is      173.8 secs

     total energy              =   -5824.84864670 Ry
     estimated scf accuracy    <       0.33965646 Ry

     iteration # 94     ecut=    50.00 Ry     beta= 0.70
     Davidson diagonalization with overlap
     ethr =  6.31E-06,  avg # of iterations =  7.0

     total cpu time spent up to now is      175.6 secs

     total energy              =   -5824.84281142 Ry
     estimated scf accuracy    <       0.25203899 Ry

     iteration # 95     ecut=    50.00 Ry     beta= 0.70
     Davidson diagonalization with overlap
     ethr =  6.31E-06,  avg # of iterations =  3.0

     total cpu time spent up to now is      177.2 secs

     total energy              =   -5824.84567343 Ry
     estimated scf accuracy    <       0.22281075 Ry

     iteration # 96     ecut=    50.00 Ry     beta= 0.70
     Davidson diagonalization with overlap
     ethr =  6.31E-06,  avg # of iterations =  1.0

     total cpu time spent up to now is      178.7 secs

     total energy              =   -5824.83140193 Ry
     estimated scf accuracy    <       0.22635686 Ry

     iteration # 97     ecut=    50.00 Ry     beta= 0.70
     Davidson diagonalization with overlap
     ethr =  6.31E-06,  avg # of iterations = 13.0

     total cpu time spent up to now is      180.6 secs

     total energy              =   -5824.83300010 Ry
     estimated scf accuracy    <       0.17003861 Ry

     iteration # 98     ecut=    50.00 Ry     beta= 0.70
     Davidson diagonalization with overlap
     ethr =  6.31E-06,  avg # of iterations =  2.0

     total cpu time spent up to now is      182.2 secs

     total energy              =   -5824.83265786 Ry
     estimated scf accuracy    <       0.16063434 Ry

     iteration # 99     ecut=    50.00 Ry     beta= 0.70
     Davidson diagonalization with overlap
     ethr =  6.31E-06,  avg # of iterations =  1.0

     total cpu time spent up to now is      183.7 secs

     total energy              =   -5824.83253393 Ry
     estimated scf accuracy    <       0.15830180 Ry

     iteration #100     ecut=    50.00 Ry     beta= 0.70
     Davidson diagonalization with overlap
     ethr =  6.31E-06,  avg # of iterations = 15.0

     total cpu time spent up to now is      185.7 secs

     total energy              =   -5824.76853908 Ry
     estimated scf accuracy    <       0.17342814 Ry

     End of self-consistent calculation

     convergence NOT achieved after 100 iterations: stopping

     Writing config to output data dir ./nv_diamond.save/ :
     XML data file, charge density distributed wavefunctions
 
     init_run     :      9.12s CPU      7.20s WALL (       1 calls)
     electrons    :    178.23s CPU    178.48s WALL (       1 calls)

     Called by init_run:
     wfcinit      :      0.50s CPU      0.63s WALL (       1 calls)
     potinit      :      0.09s CPU      0.13s WALL (       1 calls)
     hinit0       :      8.39s CPU      4.26s WALL (       1 calls)

     Called by electrons:
     c_bands      :    136.75s CPU    136.74s WALL (     100 calls)
     sum_band     :     25.12s CPU     25.17s WALL (     100 calls)
     v_of_rho     :      3.87s CPU      3.71s WALL (     101 calls)
     mix_rho      :      9.78s CPU     10.06s WALL (     100 calls)

     Called by c_bands:
     init_us_2    :      3.65s CPU      3.65s WALL (     201 calls)
     regterg      :    123.41s CPU    123.47s WALL (     100 calls)

     Called by *egterg:
     rdiaghg      :     19.75s CPU     19.79s WALL (     743 calls)
                                       19.78s GPU  (     743 calls)
     h_psi        :     81.04s CPU     81.15s WALL (     744 calls)
     g_psi        :      0.18s CPU      0.18s WALL (     643 calls)

     Called by h_psi:
     h_psi:calbec :      0.93s CPU      0.99s WALL (     744 calls)
     vloc_psi     :     49.59s CPU     49.64s WALL (     744 calls)
                                       49.63s GPU  (     744 calls)
     add_vuspsi   :     17.01s CPU     17.02s WALL (     744 calls)

     General routines
     calbec       :      0.93s CPU      0.99s WALL (     744 calls)
     fft          :      0.02s CPU      0.12s WALL (     808 calls)
                                        0.11s GPU  (     808 calls)
     ffts         :      0.00s CPU      0.02s WALL (     100 calls)
                                        0.02s GPU  (     100 calls)
     fftw         :      0.61s CPU     44.35s WALL (   65784 calls)
                                       43.50s GPU  (   65784 calls)
     davcio       :      0.00s CPU      0.56s WALL (      19 calls)
 
     Parallel routines
 
     PWSCF        :   3m 7.52s CPU   3m 6.88s WALL

 
   This run was terminated on:  19:21:40  12Feb2026            

=------------------------------------------------------------------------------=
   JOB DONE.
=------------------------------------------------------------------------------=
