
     Program PWSCF v.7.5 starts on 10Feb2026 at 18:46: 8 

     This program is part of the open-source Quantum ESPRESSO suite
     for quantum simulation of materials; please cite
         "P. Giannozzi et al., J. Phys.:Condens. Matter 21 395502 (2009);
         "P. Giannozzi et al., J. Phys.:Condens. Matter 29 465901 (2017);
         "P. Giannozzi et al., J. Chem. Phys. 152 154105 (2020);
          URL http://www.quantum-espresso.org", 
     in publications or presentations arising from this work. More details at
     http://www.quantum-espresso.org/quote

     Parallel version (MPI & OpenMP), running on       4 processor cores
     Number of MPI processes:                 2
     Threads/MPI process:                     2

     MPI processes distributed on     1 nodes
     1141414 MiB available memory on the printing compute node when the environment starts
 
     Reading input from pw.in

     Current dimensions of program PWSCF are:
     Max number of different atomic species (ntypx) = 10
     Max number of k-points (npk) =  40000
     Max angular momentum in pseudopotentials (lmaxx) =  4

     gamma-point specific algorithms are used
     Found identity + (  0.0000  0.0000  0.3333) symmetry
     This is a supercell, fractional translations are disabled
     Message from routine setup:
     using ibrav=0 with symmetry is DISCOURAGED, use correct ibrav instead
 
     R & G space division:  proc/nbgrp/npool/nimage =       2
     Subspace diagonalization in iterative solution of the eigenvalue problem:
     a serial algorithm will be used

 
     Parallelization info
     --------------------
     sticks:   dense  smooth     PW     G-vecs:    dense   smooth      PW
     Min       12739   12739   3184              3242707  3242707  405340
     Max       12742   12742   3185              3242710  3242710  405343
     Sum       25481   25481   6369              6485417  6485417  810683
 
     Using Slab Decomposition
 


     bravais-lattice index     =            0
     lattice parameter (alat)  =      20.0000  a.u.
     unit-cell volume          =   48000.0000 (a.u.)^3
     number of atoms/cell      =           30
     number of atomic types    =            2
     number of electrons       =        48.00
     number of Kohn-Sham states=          200
     kinetic-energy cutoff     =     100.0000  Ry
     charge density cutoff     =     400.0000  Ry
     scf convergence threshold =      1.0E-06
     mixing beta               =       0.7000
     number of iterations used =            8  plain     mixing
     Exchange-correlation= PBE
                           (   1   4   3   4   0   0   0)

     GPU acceleration is ACTIVE.  8 visible GPUs per MPI rank
     GPU-aware MPI enabled

     Assuming isolated system, Martyna-Tuckerman method


     celldm(1)=  20.000000  celldm(2)=   0.000000  celldm(3)=   0.000000
     celldm(4)=   0.000000  celldm(5)=   0.000000  celldm(6)=   0.000000

     crystal axes: (cart. coord. in units of alat)
               a(1) = (   1.000000   0.000000   0.000000 )  
               a(2) = (   0.000000   2.000000   0.000000 )  
               a(3) = (   0.000000   0.000000   3.000000 )  

     reciprocal axes: (cart. coord. in units 2 pi/alat)
               b(1) = (  1.000000  0.000000  0.000000 )  
               b(2) = (  0.000000  0.500000  0.000000 )  
               b(3) = (  0.000000  0.000000  0.333333 )  


     PseudoPot. # 1 for Si read from file:
     ./Si_ONCV_PBE-1.2.upf
     MD5 check sum: 7f029a58b69e3aa87b46a36c608bf45e
     Pseudo is Norm-conserving, Zval =  4.0
     Generated using ONCVPSP code by D. R. Hamann
     Using radial grid of  602 points,  4 beta functions with: 
                l(1) =   0
                l(2) =   0
                l(3) =   1
                l(4) =   1

     PseudoPot. # 2 for H  read from file:
     ./H_ONCV_PBE-1.2.upf
     MD5 check sum: bf21e08b90ac4ce7d0149ac4e8138190
     Pseudo is Norm-conserving, Zval =  1.0
     Generated using ONCVPSP code by D. R. Hamann
     Using radial grid of  602 points,  2 beta functions with: 
                l(1) =   0
                l(2) =   0

     atomic species   valence    mass     pseudopotential
     Si                4.00    28.08550     Si( 1.00)
     H                 1.00     1.00794     H ( 1.00)

      4 Sym. Ops. (no inversion) found



   Cartesian axes

     site n.     atom                  positions (alat units)
         1        Si     tau(   1) = (   0.5000000   0.5000000   0.5000000  )
         2        H      tau(   2) = (   0.5807290   0.5807290   0.5807290  )
         3        H      tau(   3) = (   0.4192709   0.4192709   0.5807290  )
         4        H      tau(   4) = (   0.4192709   0.5807290   0.4192709  )
         5        H      tau(   5) = (   0.5807290   0.4192709   0.4192709  )
         6        Si     tau(   6) = (   0.5000000   0.5000000   1.5000000  )
         7        H      tau(   7) = (   0.5807290   0.5807290   1.5807290  )
         8        H      tau(   8) = (   0.4192709   0.4192709   1.5807290  )
         9        H      tau(   9) = (   0.4192709   0.5807290   1.4192709  )
        10        H      tau(  10) = (   0.5807290   0.4192709   1.4192709  )
        11        Si     tau(  11) = (   0.5000000   0.5000000   2.5000000  )
        12        H      tau(  12) = (   0.5807290   0.5807290   2.5807290  )
        13        H      tau(  13) = (   0.4192709   0.4192709   2.5807290  )
        14        H      tau(  14) = (   0.4192709   0.5807290   2.4192709  )
        15        H      tau(  15) = (   0.5807290   0.4192709   2.4192709  )
        16        Si     tau(  16) = (   0.5000000   1.5000000   0.5000000  )
        17        H      tau(  17) = (   0.5807290   1.5807290   0.5807290  )
        18        H      tau(  18) = (   0.4192709   1.4192709   0.5807290  )
        19        H      tau(  19) = (   0.4192709   1.5807290   0.4192709  )
        20        H      tau(  20) = (   0.5807290   1.4192709   0.4192709  )
        21        Si     tau(  21) = (   0.5000000   1.5000000   1.5000000  )
        22        H      tau(  22) = (   0.5807290   1.5807290   1.5807290  )
        23        H      tau(  23) = (   0.4192709   1.4192709   1.5807290  )
        24        H      tau(  24) = (   0.4192709   1.5807290   1.4192709  )
        25        H      tau(  25) = (   0.5807290   1.4192709   1.4192709  )
        26        Si     tau(  26) = (   0.5000000   1.5000000   2.5000000  )
        27        H      tau(  27) = (   0.5807290   1.5807290   2.5807290  )
        28        H      tau(  28) = (   0.4192709   1.4192709   2.5807290  )
        29        H      tau(  29) = (   0.4192709   1.5807290   2.4192709  )
        30        H      tau(  30) = (   0.5807290   1.4192709   2.4192709  )

     number of k points=     1
                       cart. coord. in units 2pi/alat
        k(    1) = (   0.0000000   0.0000000   0.0000000), wk =   2.0000000

     Dense  grid:  3242709 G-vectors     FFT dimensions: ( 128, 256, 384)

     Estimated max dynamical RAM per process >       4.44 GB

     Estimated total dynamical RAM >       8.89 GB

     Initial potential from superposition of free atoms

     starting charge      47.6714, renormalised to      48.0000

     negative rho (up, down):  4.239E-03 0.000E+00
     Starting wfcs are random

     total cpu time spent up to now is        7.6 secs

     Self-consistent Calculation

     iteration #  1     ecut=   100.00 Ry     beta= 0.70
     Davidson diagonalization with overlap
     ethr =  1.00E-02,  avg # of iterations = 14.0

     negative rho (up, down):  2.735E-07 0.000E+00

     total cpu time spent up to now is       11.1 secs

     total energy              =     -75.28538464 Ry
     estimated scf accuracy    <       1.44843593 Ry

     iteration #  2     ecut=   100.00 Ry     beta= 0.70
     Davidson diagonalization with overlap
     ethr =  3.02E-03,  avg # of iterations = 10.0

     total cpu time spent up to now is       12.9 secs

     total energy              =     -75.37854387 Ry
     estimated scf accuracy    <       0.04346954 Ry

     iteration #  3     ecut=   100.00 Ry     beta= 0.70
     Davidson diagonalization with overlap
     ethr =  9.06E-05,  avg # of iterations = 32.0

     total cpu time spent up to now is       17.3 secs

     total energy              =     -75.40432446 Ry
     estimated scf accuracy    <       0.00153423 Ry

     iteration #  4     ecut=   100.00 Ry     beta= 0.70
     Davidson diagonalization with overlap
     c_bands:  2 eigenvalues not converged
     ethr =  3.20E-06,  avg # of iterations = 40.0

     total cpu time spent up to now is       20.6 secs

     total energy              =     -75.40533633 Ry
     estimated scf accuracy    <       0.00034544 Ry

     iteration #  5     ecut=   100.00 Ry     beta= 0.70
     Davidson diagonalization with overlap
     c_bands:  4 eigenvalues not converged
     ethr =  7.20E-07,  avg # of iterations = 20.0

     negative rho (up, down):  7.501E-06 0.000E+00

     total cpu time spent up to now is       22.3 secs

     total energy              =     -75.40543848 Ry
     estimated scf accuracy    <       0.00000721 Ry

     iteration #  6     ecut=   100.00 Ry     beta= 0.70
     Davidson diagonalization with overlap
     c_bands:  5 eigenvalues not converged
     ethr =  1.50E-08,  avg # of iterations = 60.0

     negative rho (up, down):  3.047E-06 0.000E+00

     total cpu time spent up to now is       28.4 secs

     total energy              =     -75.40546138 Ry
     estimated scf accuracy    <       0.00000376 Ry

     iteration #  7     ecut=   100.00 Ry     beta= 0.70
     Davidson diagonalization with overlap
     c_bands:  4 eigenvalues not converged
     ethr =  7.84E-09,  avg # of iterations = 20.0

     total cpu time spent up to now is       30.5 secs

     End of self-consistent calculation

          k = 0.0000 0.0000 0.0000 (405342 PWs)   bands (ev):

   -13.2968 -13.2967 -13.2967 -13.2967 -13.2967 -13.2965  -8.3723  -8.3723
    -8.3722  -8.3722  -8.3722  -8.3721  -8.3238  -8.3238  -8.3238  -8.3238
    -8.3238  -8.3237  -8.3233  -8.3233  -8.3233  -8.3232  -8.3232  -8.3231
    -0.5451  -0.4480  -0.4480  -0.3598  -0.2681  -0.2681  -0.0242   0.0058
     0.0058   0.0688   0.0689   0.0698   0.0698   0.0769   0.0769   0.1067
     0.1073   0.1158   0.1158   0.1381   0.1383   0.1591   0.1591   0.1768
     0.3685   0.4254   0.4254   0.4435   0.4436   0.6372   0.6372   0.8520
     0.9382   0.9383   0.9438   0.9600   0.9601   0.9604   0.9645   0.9911
     1.0600   1.0602   1.0602   1.0708   1.0708   1.0957   1.1523   1.1679
     1.1874   1.1875   1.2500   1.2716   1.2717   1.4144   1.4145   1.5402
     1.5402   1.5536   1.6581   1.6581   1.7424   1.7885   1.7886   1.7903
     1.8180   1.8181   1.8351   1.8632   1.8634   1.8833   1.9290   1.9290
     1.9337   1.9339   1.9630   1.9631   2.0469   2.0471   2.2582   2.2582
     2.2619   2.2724   2.2726   2.3547   2.3918   2.3974   2.4112   2.4114
     2.4140   2.4391   2.4643   2.4644   2.5200   2.5469   2.5472   2.5738
     2.5816   2.5931   2.5931   2.6101   2.6520   2.6520   2.6530   2.6530
     2.6578   2.7325   2.7596   2.7597   2.8219   2.8361   2.8685   2.8685
     2.8722   2.8987   2.9430   2.9430   2.9809   2.9810   3.0181   3.0278
     3.0369   3.0788   3.0788   3.1500   3.1790   3.2000   3.2002   3.2087
     3.2088   3.2703   3.2718   3.2731   3.2732   3.3280   3.3280   3.3376
     3.4190   3.4191   3.5234   3.5390   3.5391   3.5401   3.5402   3.5536
     3.5537   3.5702   3.5703   3.6586   3.6587   3.6861   3.6931   3.6932
     3.8215   3.8216   3.8587   3.8726   3.8788   3.8888   3.8888   3.9063
     3.9064   3.9177   3.9393   4.0843   4.0844   4.1094   4.1094   4.1095
     4.1170   4.1209   4.1425   4.1876   4.1877   4.1907   4.1907   4.2101

     highest occupied, lowest unoccupied level (ev):    -8.3231   -0.5451

!    total energy              =     -75.40546220 Ry
     estimated scf accuracy    <       0.00000015 Ry

     The total energy is the sum of the following terms:
     one-electron contribution =    -437.80926961 Ry
     hartree contribution      =     221.92551020 Ry
     xc contribution           =     -30.86226932 Ry
     ewald contribution        =     171.34056653 Ry

     convergence has been achieved in   7 iterations

     Writing all to output data dir ./test.save/ :
     XML data file, charge density, pseudopotentials, collected wavefunctions
 
     init_run     :      2.75s CPU      7.58s WALL (       1 calls)
     electrons    :     22.25s CPU     23.28s WALL (       1 calls)

     Called by init_run:
     wfcinit      :      0.24s CPU      4.15s WALL (       1 calls)
     potinit      :      0.29s CPU      0.45s WALL (       1 calls)
     hinit0       :      1.27s CPU      1.53s WALL (       1 calls)

     Called by electrons:
     c_bands      :     17.03s CPU     17.11s WALL (       7 calls)
     sum_band     :      1.85s CPU      1.88s WALL (       7 calls)
     v_of_rho     :      1.37s CPU      1.60s WALL (       8 calls)
     mix_rho      :      1.34s CPU      1.69s WALL (       7 calls)

     Called by c_bands:
     init_us_2    :      0.03s CPU      0.03s WALL (      15 calls)
     regterg      :     16.30s CPU     16.38s WALL (      11 calls)

     Called by *egterg:
     rdiaghg      :      1.05s CPU      1.09s WALL (     207 calls)
                                        1.09s GPU  (     207 calls)
     h_psi        :     12.15s CPU     16.01s WALL (     208 calls)
     g_psi        :      0.07s CPU      0.07s WALL (     196 calls)

     Called by h_psi:
     h_psi:calbec :      0.22s CPU      1.89s WALL (     208 calls)
     vloc_psi     :     11.63s CPU     13.82s WALL (     208 calls)
                                       13.81s GPU  (     208 calls)
     add_vuspsi   :      0.08s CPU      0.08s WALL (     208 calls)

     General routines
     calbec       :      0.22s CPU      1.89s WALL (     208 calls)
     fft          :      0.12s CPU      0.42s WALL (      64 calls)
                                        0.42s GPU  (      64 calls)
     ffts         :      0.02s CPU      0.02s WALL (       7 calls)
                                        0.02s GPU  (       7 calls)
     fftw         :      5.75s CPU     11.72s WALL (    1944 calls)
                                       11.69s GPU  (    1944 calls)
 
     Parallel routines
 
     PWSCF        :     25.37s CPU     46.00s WALL

 
   This run was terminated on:  18:46:54  10Feb2026            

=------------------------------------------------------------------------------=
   JOB DONE.
=------------------------------------------------------------------------------=
