
     Program PWSCF v.7.5 starts on 19Feb2026 at  4: 5:24 

     This program is part of the open-source Quantum ESPRESSO suite
     for quantum simulation of materials; please cite
         "P. Giannozzi et al., J. Phys.:Condens. Matter 21 395502 (2009);
         "P. Giannozzi et al., J. Phys.:Condens. Matter 29 465901 (2017);
         "P. Giannozzi et al., J. Chem. Phys. 152 154105 (2020);
          URL http://www.quantum-espresso.org", 
     in publications or presentations arising from this work. More details at
     http://www.quantum-espresso.org/quote

     Parallel version (MPI & OpenMP), running on       8 processor cores
     Number of MPI processes:                 8
     Threads/MPI process:                     1

     MPI processes distributed on     1 nodes
     1140110 MiB available memory on the printing compute node when the environment starts
 
     Reading input from pw.in

     Current dimensions of program PWSCF are:
     Max number of different atomic species (ntypx) = 10
     Max number of k-points (npk) =  40000
     Max angular momentum in pseudopotentials (lmaxx) =  4

     gamma-point specific algorithms are used
     Message from routine setup:
     using ibrav=0 with symmetry is DISCOURAGED, use correct ibrav instead
 
     R & G space division:  proc/nbgrp/npool/nimage =       8
     Subspace diagonalization in iterative solution of the eigenvalue problem:
     a serial algorithm will be used

 
     Parallelization info
     --------------------
     sticks:   dense  smooth     PW     G-vecs:    dense   smooth      PW
     Min        1444    1444    359               117020   117020   14611
     Max        1446    1446    362               117026   117026   14622
     Sum       11561   11561   2885               936185   936185  116921
 
     Using Slab Decomposition
 


     bravais-lattice index     =            0
     lattice parameter (alat)  =      26.9626  a.u.
     unit-cell volume          =   19601.3464 (a.u.)^3
     number of atoms/cell      =          511
     number of atomic types    =            2
     number of electrons       =      2046.00 (up:1024.00, down:1022.00)
     number of Kohn-Sham states=         1024
     kinetic-energy cutoff     =      50.0000  Ry
     charge density cutoff     =     200.0000  Ry
     scf convergence threshold =      1.0E-06
     mixing beta               =       0.7000
     number of iterations used =            8  plain     mixing
     Exchange-correlation= PBE
                           (   1   4   3   4   0   0   0)

     GPU acceleration is ACTIVE.  8 visible GPUs per MPI rank
     GPU-aware MPI enabled


     celldm(1)=  26.962612  celldm(2)=   0.000000  celldm(3)=   0.000000
     celldm(4)=   0.000000  celldm(5)=   0.000000  celldm(6)=   0.000000

     crystal axes: (cart. coord. in units of alat)
               a(1) = (   1.000000   0.000000   0.000000 )  
               a(2) = (   0.000000   1.000000   0.000000 )  
               a(3) = (   0.000000   0.000000   1.000000 )  

     reciprocal axes: (cart. coord. in units 2 pi/alat)
               b(1) = (  1.000000  0.000000  0.000000 )  
               b(2) = (  0.000000  1.000000  0.000000 )  
               b(3) = (  0.000000  0.000000  1.000000 )  


     PseudoPot. # 1 for C  read from file:
     ./C_ONCV_PBE-1.2.upf
     MD5 check sum: 1a5f83a7b1f58d24996abe00ed223ac6
     Pseudo is Norm-conserving, Zval =  4.0
     Generated using ONCVPSP code by D. R. Hamann
     Using radial grid of  602 points,  4 beta functions with: 
                l(1) =   0
                l(2) =   0
                l(3) =   1
                l(4) =   1

     PseudoPot. # 2 for N  read from file:
     ./N_ONCV_PBE-1.2.upf
     MD5 check sum: c233fa8df51455e992258b7c3dee8a9f
     Pseudo is Norm-conserving, Zval =  5.0
     Generated using ONCVPSP code by D. R. Hamann
     Using radial grid of  602 points,  4 beta functions with: 
                l(1) =   0
                l(2) =   0
                l(3) =   1
                l(4) =   1

     atomic species   valence    mass     pseudopotential
     C                 4.00    12.01100     C ( 1.00)
     N                 5.00    14.00700     N ( 1.00)

     Starting magnetic structure 
     atomic species   magnetization
     C               0.000
     N               0.000

      2 Sym. Ops. (no inversion) found ( 1 have fractional translation)



   Cartesian axes

     site n.     atom                  positions (alat units)
         1        C      tau(   1) = (   0.0000000   0.0000000   0.0000000  )
         2        C      tau(   2) = (   0.0625000   0.0625000   0.0625000  )
         3        C      tau(   3) = (   0.0000000   0.1250000   0.1250000  )
         4        C      tau(   4) = (   0.1250000   0.0000000   0.1250000  )
         5        C      tau(   5) = (   0.1875000   0.0625000   0.1875000  )
         6        C      tau(   6) = (   0.1250000   0.1250000   0.0000000  )
         7        C      tau(   7) = (   0.1875000   0.1875000   0.0625000  )
         8        C      tau(   8) = (   0.0000000   0.0000000   0.2500000  )
         9        C      tau(   9) = (   0.0625000   0.0625000   0.3125000  )
        10        C      tau(  10) = (   0.0000000   0.1250000   0.3750000  )
        11        C      tau(  11) = (   0.0625000   0.1875000   0.4375000  )
        12        C      tau(  12) = (   0.1250000   0.0000000   0.3750000  )
        13        C      tau(  13) = (   0.1875000   0.0625000   0.4375000  )
        14        N      tau(  14) = (   0.1250000   0.1250000   0.2500000  )
        15        C      tau(  15) = (   0.1875000   0.1875000   0.3125000  )
        16        C      tau(  16) = (   0.0000000   0.0000000   0.5000000  )
        17        C      tau(  17) = (   0.0625000   0.0625000   0.5625000  )
        18        C      tau(  18) = (   0.0000000   0.1250000   0.6250000  )
        19        C      tau(  19) = (   0.0625000   0.1875000   0.6875000  )
        20        C      tau(  20) = (   0.1250000   0.0000000   0.6250000  )
        21        C      tau(  21) = (   0.1875000   0.0625000   0.6875000  )
        22        C      tau(  22) = (   0.1250000   0.1250000   0.5000000  )
        23        C      tau(  23) = (   0.1875000   0.1875000   0.5625000  )
        24        C      tau(  24) = (   0.0000000   0.0000000   0.7500000  )
        25        C      tau(  25) = (   0.0625000   0.0625000   0.8125000  )
        26        C      tau(  26) = (   0.0000000   0.1250000   0.8750000  )
        27        C      tau(  27) = (   0.0625000   0.1875000   0.9375000  )
        28        C      tau(  28) = (   0.1250000   0.0000000   0.8750000  )
        29        C      tau(  29) = (   0.1875000   0.0625000   0.9375000  )
        30        C      tau(  30) = (   0.1250000   0.1250000   0.7500000  )
        31        C      tau(  31) = (   0.1875000   0.1875000   0.8125000  )
        32        C      tau(  32) = (   0.0000000   0.2500000   0.0000000  )
        33        C      tau(  33) = (   0.0625000   0.3125000   0.0625000  )
        34        C      tau(  34) = (   0.0000000   0.3750000   0.1250000  )
        35        C      tau(  35) = (   0.0625000   0.4375000   0.1875000  )
        36        C      tau(  36) = (   0.1250000   0.2500000   0.1250000  )
        37        C      tau(  37) = (   0.1875000   0.3125000   0.1875000  )
        38        C      tau(  38) = (   0.1250000   0.3750000   0.0000000  )
        39        C      tau(  39) = (   0.1875000   0.4375000   0.0625000  )
        40        C      tau(  40) = (   0.0000000   0.2500000   0.2500000  )
        41        C      tau(  41) = (   0.0625000   0.3125000   0.3125000  )
        42        C      tau(  42) = (   0.0000000   0.3750000   0.3750000  )
        43        C      tau(  43) = (   0.0625000   0.4375000   0.4375000  )
        44        C      tau(  44) = (   0.1250000   0.2500000   0.3750000  )
        45        C      tau(  45) = (   0.1875000   0.3125000   0.4375000  )
        46        C      tau(  46) = (   0.1250000   0.3750000   0.2500000  )
        47        C      tau(  47) = (   0.1875000   0.4375000   0.3125000  )
        48        C      tau(  48) = (   0.0000000   0.2500000   0.5000000  )
        49        C      tau(  49) = (   0.0625000   0.3125000   0.5625000  )
        50        C      tau(  50) = (   0.0000000   0.3750000   0.6250000  )
        51        C      tau(  51) = (   0.0625000   0.4375000   0.6875000  )
        52        C      tau(  52) = (   0.1250000   0.2500000   0.6250000  )
        53        C      tau(  53) = (   0.1875000   0.3125000   0.6875000  )
        54        C      tau(  54) = (   0.1250000   0.3750000   0.5000000  )
        55        C      tau(  55) = (   0.1875000   0.4375000   0.5625000  )
        56        C      tau(  56) = (   0.0000000   0.2500000   0.7500000  )
        57        C      tau(  57) = (   0.0625000   0.3125000   0.8125000  )
        58        C      tau(  58) = (   0.0000000   0.3750000   0.8750000  )
        59        C      tau(  59) = (   0.0625000   0.4375000   0.9375000  )
        60        C      tau(  60) = (   0.1250000   0.2500000   0.8750000  )
        61        C      tau(  61) = (   0.1875000   0.3125000   0.9375000  )
        62        C      tau(  62) = (   0.1250000   0.3750000   0.7500000  )
        63        C      tau(  63) = (   0.1875000   0.4375000   0.8125000  )
        64        C      tau(  64) = (   0.0000000   0.5000000   0.0000000  )
        65        C      tau(  65) = (   0.0625000   0.5625000   0.0625000  )
        66        C      tau(  66) = (   0.0000000   0.6250000   0.1250000  )
        67        C      tau(  67) = (   0.0625000   0.6875000   0.1875000  )
        68        C      tau(  68) = (   0.1250000   0.5000000   0.1250000  )
        69        C      tau(  69) = (   0.1875000   0.5625000   0.1875000  )
        70        C      tau(  70) = (   0.1250000   0.6250000   0.0000000  )
        71        C      tau(  71) = (   0.1875000   0.6875000   0.0625000  )
        72        C      tau(  72) = (   0.0000000   0.5000000   0.2500000  )
        73        C      tau(  73) = (   0.0625000   0.5625000   0.3125000  )
        74        C      tau(  74) = (   0.0000000   0.6250000   0.3750000  )
        75        C      tau(  75) = (   0.0625000   0.6875000   0.4375000  )
        76        C      tau(  76) = (   0.1250000   0.5000000   0.3750000  )
        77        C      tau(  77) = (   0.1875000   0.5625000   0.4375000  )
        78        C      tau(  78) = (   0.1250000   0.6250000   0.2500000  )
        79        C      tau(  79) = (   0.1875000   0.6875000   0.3125000  )
        80        C      tau(  80) = (   0.0000000   0.5000000   0.5000000  )
        81        C      tau(  81) = (   0.0625000   0.5625000   0.5625000  )
        82        C      tau(  82) = (   0.0000000   0.6250000   0.6250000  )
        83        C      tau(  83) = (   0.0625000   0.6875000   0.6875000  )
        84        C      tau(  84) = (   0.1250000   0.5000000   0.6250000  )
        85        C      tau(  85) = (   0.1875000   0.5625000   0.6875000  )
        86        C      tau(  86) = (   0.1250000   0.6250000   0.5000000  )
        87        C      tau(  87) = (   0.1875000   0.6875000   0.5625000  )
        88        C      tau(  88) = (   0.0000000   0.5000000   0.7500000  )
        89        C      tau(  89) = (   0.0625000   0.5625000   0.8125000  )
        90        C      tau(  90) = (   0.0000000   0.6250000   0.8750000  )
        91        C      tau(  91) = (   0.0625000   0.6875000   0.9375000  )
        92        C      tau(  92) = (   0.1250000   0.5000000   0.8750000  )
        93        C      tau(  93) = (   0.1875000   0.5625000   0.9375000  )
        94        C      tau(  94) = (   0.1250000   0.6250000   0.7500000  )
        95        C      tau(  95) = (   0.1875000   0.6875000   0.8125000  )
        96        C      tau(  96) = (   0.0000000   0.7500000   0.0000000  )
        97        C      tau(  97) = (   0.0625000   0.8125000   0.0625000  )
        98        C      tau(  98) = (   0.0000000   0.8750000   0.1250000  )
        99        C      tau(  99) = (   0.0625000   0.9375000   0.1875000  )
       100        C      tau( 100) = (   0.1250000   0.7500000   0.1250000  )
       101        C      tau( 101) = (   0.1875000   0.8125000   0.1875000  )
       102        C      tau( 102) = (   0.1250000   0.8750000   0.0000000  )
       103        C      tau( 103) = (   0.1875000   0.9375000   0.0625000  )
       104        C      tau( 104) = (   0.0000000   0.7500000   0.2500000  )
       105        C      tau( 105) = (   0.0625000   0.8125000   0.3125000  )
       106        C      tau( 106) = (   0.0000000   0.8750000   0.3750000  )
       107        C      tau( 107) = (   0.0625000   0.9375000   0.4375000  )
       108        C      tau( 108) = (   0.1250000   0.7500000   0.3750000  )
       109        C      tau( 109) = (   0.1875000   0.8125000   0.4375000  )
       110        C      tau( 110) = (   0.1250000   0.8750000   0.2500000  )
       111        C      tau( 111) = (   0.1875000   0.9375000   0.3125000  )
       112        C      tau( 112) = (   0.0000000   0.7500000   0.5000000  )
       113        C      tau( 113) = (   0.0625000   0.8125000   0.5625000  )
       114        C      tau( 114) = (   0.0000000   0.8750000   0.6250000  )
       115        C      tau( 115) = (   0.0625000   0.9375000   0.6875000  )
       116        C      tau( 116) = (   0.1250000   0.7500000   0.6250000  )
       117        C      tau( 117) = (   0.1875000   0.8125000   0.6875000  )
       118        C      tau( 118) = (   0.1250000   0.8750000   0.5000000  )
       119        C      tau( 119) = (   0.1875000   0.9375000   0.5625000  )
       120        C      tau( 120) = (   0.0000000   0.7500000   0.7500000  )
       121        C      tau( 121) = (   0.0625000   0.8125000   0.8125000  )
       122        C      tau( 122) = (   0.0000000   0.8750000   0.8750000  )
       123        C      tau( 123) = (   0.0625000   0.9375000   0.9375000  )
       124        C      tau( 124) = (   0.1250000   0.7500000   0.8750000  )
       125        C      tau( 125) = (   0.1875000   0.8125000   0.9375000  )
       126        C      tau( 126) = (   0.1250000   0.8750000   0.7500000  )
       127        C      tau( 127) = (   0.1875000   0.9375000   0.8125000  )
       128        C      tau( 128) = (   0.2500000   0.0000000   0.0000000  )
       129        C      tau( 129) = (   0.3125000   0.0625000   0.0625000  )
       130        C      tau( 130) = (   0.2500000   0.1250000   0.1250000  )
       131        C      tau( 131) = (   0.3125000   0.1875000   0.1875000  )
       132        C      tau( 132) = (   0.3750000   0.0000000   0.1250000  )
       133        C      tau( 133) = (   0.4375000   0.0625000   0.1875000  )
       134        C      tau( 134) = (   0.3750000   0.1250000   0.0000000  )
       135        C      tau( 135) = (   0.4375000   0.1875000   0.0625000  )
       136        C      tau( 136) = (   0.2500000   0.0000000   0.2500000  )
       137        C      tau( 137) = (   0.3125000   0.0625000   0.3125000  )
       138        C      tau( 138) = (   0.2500000   0.1250000   0.3750000  )
       139        C      tau( 139) = (   0.3125000   0.1875000   0.4375000  )
       140        C      tau( 140) = (   0.3750000   0.0000000   0.3750000  )
       141        C      tau( 141) = (   0.4375000   0.0625000   0.4375000  )
       142        C      tau( 142) = (   0.3750000   0.1250000   0.2500000  )
       143        C      tau( 143) = (   0.4375000   0.1875000   0.3125000  )
       144        C      tau( 144) = (   0.2500000   0.0000000   0.5000000  )
       145        C      tau( 145) = (   0.3125000   0.0625000   0.5625000  )
       146        C      tau( 146) = (   0.2500000   0.1250000   0.6250000  )
       147        C      tau( 147) = (   0.3125000   0.1875000   0.6875000  )
       148        C      tau( 148) = (   0.3750000   0.0000000   0.6250000  )
       149        C      tau( 149) = (   0.4375000   0.0625000   0.6875000  )
       150        C      tau( 150) = (   0.3750000   0.1250000   0.5000000  )
       151        C      tau( 151) = (   0.4375000   0.1875000   0.5625000  )
       152        C      tau( 152) = (   0.2500000   0.0000000   0.7500000  )
       153        C      tau( 153) = (   0.3125000   0.0625000   0.8125000  )
       154        C      tau( 154) = (   0.2500000   0.1250000   0.8750000  )
       155        C      tau( 155) = (   0.3125000   0.1875000   0.9375000  )
       156        C      tau( 156) = (   0.3750000   0.0000000   0.8750000  )
       157        C      tau( 157) = (   0.4375000   0.0625000   0.9375000  )
       158        C      tau( 158) = (   0.3750000   0.1250000   0.7500000  )
       159        C      tau( 159) = (   0.4375000   0.1875000   0.8125000  )
       160        C      tau( 160) = (   0.2500000   0.2500000   0.0000000  )
       161        C      tau( 161) = (   0.3125000   0.3125000   0.0625000  )
       162        C      tau( 162) = (   0.2500000   0.3750000   0.1250000  )
       163        C      tau( 163) = (   0.3125000   0.4375000   0.1875000  )
       164        C      tau( 164) = (   0.3750000   0.2500000   0.1250000  )
       165        C      tau( 165) = (   0.4375000   0.3125000   0.1875000  )
       166        C      tau( 166) = (   0.3750000   0.3750000   0.0000000  )
       167        C      tau( 167) = (   0.4375000   0.4375000   0.0625000  )
       168        C      tau( 168) = (   0.2500000   0.2500000   0.2500000  )
       169        C      tau( 169) = (   0.3125000   0.3125000   0.3125000  )
       170        C      tau( 170) = (   0.2500000   0.3750000   0.3750000  )
       171        C      tau( 171) = (   0.3125000   0.4375000   0.4375000  )
       172        C      tau( 172) = (   0.3750000   0.2500000   0.3750000  )
       173        C      tau( 173) = (   0.4375000   0.3125000   0.4375000  )
       174        C      tau( 174) = (   0.3750000   0.3750000   0.2500000  )
       175        C      tau( 175) = (   0.4375000   0.4375000   0.3125000  )
       176        C      tau( 176) = (   0.2500000   0.2500000   0.5000000  )
       177        C      tau( 177) = (   0.3125000   0.3125000   0.5625000  )
       178        C      tau( 178) = (   0.2500000   0.3750000   0.6250000  )
       179        C      tau( 179) = (   0.3125000   0.4375000   0.6875000  )
       180        C      tau( 180) = (   0.3750000   0.2500000   0.6250000  )
       181        C      tau( 181) = (   0.4375000   0.3125000   0.6875000  )
       182        C      tau( 182) = (   0.3750000   0.3750000   0.5000000  )
       183        C      tau( 183) = (   0.4375000   0.4375000   0.5625000  )
       184        C      tau( 184) = (   0.2500000   0.2500000   0.7500000  )
       185        C      tau( 185) = (   0.3125000   0.3125000   0.8125000  )
       186        C      tau( 186) = (   0.2500000   0.3750000   0.8750000  )
       187        C      tau( 187) = (   0.3125000   0.4375000   0.9375000  )
       188        C      tau( 188) = (   0.3750000   0.2500000   0.8750000  )
       189        C      tau( 189) = (   0.4375000   0.3125000   0.9375000  )
       190        C      tau( 190) = (   0.3750000   0.3750000   0.7500000  )
       191        C      tau( 191) = (   0.4375000   0.4375000   0.8125000  )
       192        C      tau( 192) = (   0.2500000   0.5000000   0.0000000  )
       193        C      tau( 193) = (   0.3125000   0.5625000   0.0625000  )
       194        C      tau( 194) = (   0.2500000   0.6250000   0.1250000  )
       195        C      tau( 195) = (   0.3125000   0.6875000   0.1875000  )
       196        C      tau( 196) = (   0.3750000   0.5000000   0.1250000  )
       197        C      tau( 197) = (   0.4375000   0.5625000   0.1875000  )
       198        C      tau( 198) = (   0.3750000   0.6250000   0.0000000  )
       199        C      tau( 199) = (   0.4375000   0.6875000   0.0625000  )
       200        C      tau( 200) = (   0.2500000   0.5000000   0.2500000  )
       201        C      tau( 201) = (   0.3125000   0.5625000   0.3125000  )
       202        C      tau( 202) = (   0.2500000   0.6250000   0.3750000  )
       203        C      tau( 203) = (   0.3125000   0.6875000   0.4375000  )
       204        C      tau( 204) = (   0.3750000   0.5000000   0.3750000  )
       205        C      tau( 205) = (   0.4375000   0.5625000   0.4375000  )
       206        C      tau( 206) = (   0.3750000   0.6250000   0.2500000  )
       207        C      tau( 207) = (   0.4375000   0.6875000   0.3125000  )
       208        C      tau( 208) = (   0.2500000   0.5000000   0.5000000  )
       209        C      tau( 209) = (   0.3125000   0.5625000   0.5625000  )
       210        C      tau( 210) = (   0.2500000   0.6250000   0.6250000  )
       211        C      tau( 211) = (   0.3125000   0.6875000   0.6875000  )
       212        C      tau( 212) = (   0.3750000   0.5000000   0.6250000  )
       213        C      tau( 213) = (   0.4375000   0.5625000   0.6875000  )
       214        C      tau( 214) = (   0.3750000   0.6250000   0.5000000  )
       215        C      tau( 215) = (   0.4375000   0.6875000   0.5625000  )
       216        C      tau( 216) = (   0.2500000   0.5000000   0.7500000  )
       217        C      tau( 217) = (   0.3125000   0.5625000   0.8125000  )
       218        C      tau( 218) = (   0.2500000   0.6250000   0.8750000  )
       219        C      tau( 219) = (   0.3125000   0.6875000   0.9375000  )
       220        C      tau( 220) = (   0.3750000   0.5000000   0.8750000  )
       221        C      tau( 221) = (   0.4375000   0.5625000   0.9375000  )
       222        C      tau( 222) = (   0.3750000   0.6250000   0.7500000  )
       223        C      tau( 223) = (   0.4375000   0.6875000   0.8125000  )
       224        C      tau( 224) = (   0.2500000   0.7500000   0.0000000  )
       225        C      tau( 225) = (   0.3125000   0.8125000   0.0625000  )
       226        C      tau( 226) = (   0.2500000   0.8750000   0.1250000  )
       227        C      tau( 227) = (   0.3125000   0.9375000   0.1875000  )
       228        C      tau( 228) = (   0.3750000   0.7500000   0.1250000  )
       229        C      tau( 229) = (   0.4375000   0.8125000   0.1875000  )
       230        C      tau( 230) = (   0.3750000   0.8750000   0.0000000  )
       231        C      tau( 231) = (   0.4375000   0.9375000   0.0625000  )
       232        C      tau( 232) = (   0.2500000   0.7500000   0.2500000  )
       233        C      tau( 233) = (   0.3125000   0.8125000   0.3125000  )
       234        C      tau( 234) = (   0.2500000   0.8750000   0.3750000  )
       235        C      tau( 235) = (   0.3125000   0.9375000   0.4375000  )
       236        C      tau( 236) = (   0.3750000   0.7500000   0.3750000  )
       237        C      tau( 237) = (   0.4375000   0.8125000   0.4375000  )
       238        C      tau( 238) = (   0.3750000   0.8750000   0.2500000  )
       239        C      tau( 239) = (   0.4375000   0.9375000   0.3125000  )
       240        C      tau( 240) = (   0.2500000   0.7500000   0.5000000  )
       241        C      tau( 241) = (   0.3125000   0.8125000   0.5625000  )
       242        C      tau( 242) = (   0.2500000   0.8750000   0.6250000  )
       243        C      tau( 243) = (   0.3125000   0.9375000   0.6875000  )
       244        C      tau( 244) = (   0.3750000   0.7500000   0.6250000  )
       245        C      tau( 245) = (   0.4375000   0.8125000   0.6875000  )
       246        C      tau( 246) = (   0.3750000   0.8750000   0.5000000  )
       247        C      tau( 247) = (   0.4375000   0.9375000   0.5625000  )
       248        C      tau( 248) = (   0.2500000   0.7500000   0.7500000  )
       249        C      tau( 249) = (   0.3125000   0.8125000   0.8125000  )
       250        C      tau( 250) = (   0.2500000   0.8750000   0.8750000  )
       251        C      tau( 251) = (   0.3125000   0.9375000   0.9375000  )
       252        C      tau( 252) = (   0.3750000   0.7500000   0.8750000  )
       253        C      tau( 253) = (   0.4375000   0.8125000   0.9375000  )
       254        C      tau( 254) = (   0.3750000   0.8750000   0.7500000  )
       255        C      tau( 255) = (   0.4375000   0.9375000   0.8125000  )
       256        C      tau( 256) = (   0.5000000   0.0000000   0.0000000  )
       257        C      tau( 257) = (   0.5625000   0.0625000   0.0625000  )
       258        C      tau( 258) = (   0.5000000   0.1250000   0.1250000  )
       259        C      tau( 259) = (   0.5625000   0.1875000   0.1875000  )
       260        C      tau( 260) = (   0.6250000   0.0000000   0.1250000  )
       261        C      tau( 261) = (   0.6875000   0.0625000   0.1875000  )
       262        C      tau( 262) = (   0.6250000   0.1250000   0.0000000  )
       263        C      tau( 263) = (   0.6875000   0.1875000   0.0625000  )
       264        C      tau( 264) = (   0.5000000   0.0000000   0.2500000  )
       265        C      tau( 265) = (   0.5625000   0.0625000   0.3125000  )
       266        C      tau( 266) = (   0.5000000   0.1250000   0.3750000  )
       267        C      tau( 267) = (   0.5625000   0.1875000   0.4375000  )
       268        C      tau( 268) = (   0.6250000   0.0000000   0.3750000  )
       269        C      tau( 269) = (   0.6875000   0.0625000   0.4375000  )
       270        C      tau( 270) = (   0.6250000   0.1250000   0.2500000  )
       271        C      tau( 271) = (   0.6875000   0.1875000   0.3125000  )
       272        C      tau( 272) = (   0.5000000   0.0000000   0.5000000  )
       273        C      tau( 273) = (   0.5625000   0.0625000   0.5625000  )
       274        C      tau( 274) = (   0.5000000   0.1250000   0.6250000  )
       275        C      tau( 275) = (   0.5625000   0.1875000   0.6875000  )
       276        C      tau( 276) = (   0.6250000   0.0000000   0.6250000  )
       277        C      tau( 277) = (   0.6875000   0.0625000   0.6875000  )
       278        C      tau( 278) = (   0.6250000   0.1250000   0.5000000  )
       279        C      tau( 279) = (   0.6875000   0.1875000   0.5625000  )
       280        C      tau( 280) = (   0.5000000   0.0000000   0.7500000  )
       281        C      tau( 281) = (   0.5625000   0.0625000   0.8125000  )
       282        C      tau( 282) = (   0.5000000   0.1250000   0.8750000  )
       283        C      tau( 283) = (   0.5625000   0.1875000   0.9375000  )
       284        C      tau( 284) = (   0.6250000   0.0000000   0.8750000  )
       285        C      tau( 285) = (   0.6875000   0.0625000   0.9375000  )
       286        C      tau( 286) = (   0.6250000   0.1250000   0.7500000  )
       287        C      tau( 287) = (   0.6875000   0.1875000   0.8125000  )
       288        C      tau( 288) = (   0.5000000   0.2500000   0.0000000  )
       289        C      tau( 289) = (   0.5625000   0.3125000   0.0625000  )
       290        C      tau( 290) = (   0.5000000   0.3750000   0.1250000  )
       291        C      tau( 291) = (   0.5625000   0.4375000   0.1875000  )
       292        C      tau( 292) = (   0.6250000   0.2500000   0.1250000  )
       293        C      tau( 293) = (   0.6875000   0.3125000   0.1875000  )
       294        C      tau( 294) = (   0.6250000   0.3750000   0.0000000  )
       295        C      tau( 295) = (   0.6875000   0.4375000   0.0625000  )
       296        C      tau( 296) = (   0.5000000   0.2500000   0.2500000  )
       297        C      tau( 297) = (   0.5625000   0.3125000   0.3125000  )
       298        C      tau( 298) = (   0.5000000   0.3750000   0.3750000  )
       299        C      tau( 299) = (   0.5625000   0.4375000   0.4375000  )
       300        C      tau( 300) = (   0.6250000   0.2500000   0.3750000  )
       301        C      tau( 301) = (   0.6875000   0.3125000   0.4375000  )
       302        C      tau( 302) = (   0.6250000   0.3750000   0.2500000  )
       303        C      tau( 303) = (   0.6875000   0.4375000   0.3125000  )
       304        C      tau( 304) = (   0.5000000   0.2500000   0.5000000  )
       305        C      tau( 305) = (   0.5625000   0.3125000   0.5625000  )
       306        C      tau( 306) = (   0.5000000   0.3750000   0.6250000  )
       307        C      tau( 307) = (   0.5625000   0.4375000   0.6875000  )
       308        C      tau( 308) = (   0.6250000   0.2500000   0.6250000  )
       309        C      tau( 309) = (   0.6875000   0.3125000   0.6875000  )
       310        C      tau( 310) = (   0.6250000   0.3750000   0.5000000  )
       311        C      tau( 311) = (   0.6875000   0.4375000   0.5625000  )
       312        C      tau( 312) = (   0.5000000   0.2500000   0.7500000  )
       313        C      tau( 313) = (   0.5625000   0.3125000   0.8125000  )
       314        C      tau( 314) = (   0.5000000   0.3750000   0.8750000  )
       315        C      tau( 315) = (   0.5625000   0.4375000   0.9375000  )
       316        C      tau( 316) = (   0.6250000   0.2500000   0.8750000  )
       317        C      tau( 317) = (   0.6875000   0.3125000   0.9375000  )
       318        C      tau( 318) = (   0.6250000   0.3750000   0.7500000  )
       319        C      tau( 319) = (   0.6875000   0.4375000   0.8125000  )
       320        C      tau( 320) = (   0.5000000   0.5000000   0.0000000  )
       321        C      tau( 321) = (   0.5625000   0.5625000   0.0625000  )
       322        C      tau( 322) = (   0.5000000   0.6250000   0.1250000  )
       323        C      tau( 323) = (   0.5625000   0.6875000   0.1875000  )
       324        C      tau( 324) = (   0.6250000   0.5000000   0.1250000  )
       325        C      tau( 325) = (   0.6875000   0.5625000   0.1875000  )
       326        C      tau( 326) = (   0.6250000   0.6250000   0.0000000  )
       327        C      tau( 327) = (   0.6875000   0.6875000   0.0625000  )
       328        C      tau( 328) = (   0.5000000   0.5000000   0.2500000  )
       329        C      tau( 329) = (   0.5625000   0.5625000   0.3125000  )
       330        C      tau( 330) = (   0.5000000   0.6250000   0.3750000  )
       331        C      tau( 331) = (   0.5625000   0.6875000   0.4375000  )
       332        C      tau( 332) = (   0.6250000   0.5000000   0.3750000  )
       333        C      tau( 333) = (   0.6875000   0.5625000   0.4375000  )
       334        C      tau( 334) = (   0.6250000   0.6250000   0.2500000  )
       335        C      tau( 335) = (   0.6875000   0.6875000   0.3125000  )
       336        C      tau( 336) = (   0.5000000   0.5000000   0.5000000  )
       337        C      tau( 337) = (   0.5625000   0.5625000   0.5625000  )
       338        C      tau( 338) = (   0.5000000   0.6250000   0.6250000  )
       339        C      tau( 339) = (   0.5625000   0.6875000   0.6875000  )
       340        C      tau( 340) = (   0.6250000   0.5000000   0.6250000  )
       341        C      tau( 341) = (   0.6875000   0.5625000   0.6875000  )
       342        C      tau( 342) = (   0.6250000   0.6250000   0.5000000  )
       343        C      tau( 343) = (   0.6875000   0.6875000   0.5625000  )
       344        C      tau( 344) = (   0.5000000   0.5000000   0.7500000  )
       345        C      tau( 345) = (   0.5625000   0.5625000   0.8125000  )
       346        C      tau( 346) = (   0.5000000   0.6250000   0.8750000  )
       347        C      tau( 347) = (   0.5625000   0.6875000   0.9375000  )
       348        C      tau( 348) = (   0.6250000   0.5000000   0.8750000  )
       349        C      tau( 349) = (   0.6875000   0.5625000   0.9375000  )
       350        C      tau( 350) = (   0.6250000   0.6250000   0.7500000  )
       351        C      tau( 351) = (   0.6875000   0.6875000   0.8125000  )
       352        C      tau( 352) = (   0.5000000   0.7500000   0.0000000  )
       353        C      tau( 353) = (   0.5625000   0.8125000   0.0625000  )
       354        C      tau( 354) = (   0.5000000   0.8750000   0.1250000  )
       355        C      tau( 355) = (   0.5625000   0.9375000   0.1875000  )
       356        C      tau( 356) = (   0.6250000   0.7500000   0.1250000  )
       357        C      tau( 357) = (   0.6875000   0.8125000   0.1875000  )
       358        C      tau( 358) = (   0.6250000   0.8750000   0.0000000  )
       359        C      tau( 359) = (   0.6875000   0.9375000   0.0625000  )
       360        C      tau( 360) = (   0.5000000   0.7500000   0.2500000  )
       361        C      tau( 361) = (   0.5625000   0.8125000   0.3125000  )
       362        C      tau( 362) = (   0.5000000   0.8750000   0.3750000  )
       363        C      tau( 363) = (   0.5625000   0.9375000   0.4375000  )
       364        C      tau( 364) = (   0.6250000   0.7500000   0.3750000  )
       365        C      tau( 365) = (   0.6875000   0.8125000   0.4375000  )
       366        C      tau( 366) = (   0.6250000   0.8750000   0.2500000  )
       367        C      tau( 367) = (   0.6875000   0.9375000   0.3125000  )
       368        C      tau( 368) = (   0.5000000   0.7500000   0.5000000  )
       369        C      tau( 369) = (   0.5625000   0.8125000   0.5625000  )
       370        C      tau( 370) = (   0.5000000   0.8750000   0.6250000  )
       371        C      tau( 371) = (   0.5625000   0.9375000   0.6875000  )
       372        C      tau( 372) = (   0.6250000   0.7500000   0.6250000  )
       373        C      tau( 373) = (   0.6875000   0.8125000   0.6875000  )
       374        C      tau( 374) = (   0.6250000   0.8750000   0.5000000  )
       375        C      tau( 375) = (   0.6875000   0.9375000   0.5625000  )
       376        C      tau( 376) = (   0.5000000   0.7500000   0.7500000  )
       377        C      tau( 377) = (   0.5625000   0.8125000   0.8125000  )
       378        C      tau( 378) = (   0.5000000   0.8750000   0.8750000  )
       379        C      tau( 379) = (   0.5625000   0.9375000   0.9375000  )
       380        C      tau( 380) = (   0.6250000   0.7500000   0.8750000  )
       381        C      tau( 381) = (   0.6875000   0.8125000   0.9375000  )
       382        C      tau( 382) = (   0.6250000   0.8750000   0.7500000  )
       383        C      tau( 383) = (   0.6875000   0.9375000   0.8125000  )
       384        C      tau( 384) = (   0.7500000   0.0000000   0.0000000  )
       385        C      tau( 385) = (   0.8125000   0.0625000   0.0625000  )
       386        C      tau( 386) = (   0.7500000   0.1250000   0.1250000  )
       387        C      tau( 387) = (   0.8125000   0.1875000   0.1875000  )
       388        C      tau( 388) = (   0.8750000   0.0000000   0.1250000  )
       389        C      tau( 389) = (   0.9375000   0.0625000   0.1875000  )
       390        C      tau( 390) = (   0.8750000   0.1250000   0.0000000  )
       391        C      tau( 391) = (   0.9375000   0.1875000   0.0625000  )
       392        C      tau( 392) = (   0.7500000   0.0000000   0.2500000  )
       393        C      tau( 393) = (   0.8125000   0.0625000   0.3125000  )
       394        C      tau( 394) = (   0.7500000   0.1250000   0.3750000  )
       395        C      tau( 395) = (   0.8125000   0.1875000   0.4375000  )
       396        C      tau( 396) = (   0.8750000   0.0000000   0.3750000  )
       397        C      tau( 397) = (   0.9375000   0.0625000   0.4375000  )
       398        C      tau( 398) = (   0.8750000   0.1250000   0.2500000  )
       399        C      tau( 399) = (   0.9375000   0.1875000   0.3125000  )
       400        C      tau( 400) = (   0.7500000   0.0000000   0.5000000  )
       401        C      tau( 401) = (   0.8125000   0.0625000   0.5625000  )
       402        C      tau( 402) = (   0.7500000   0.1250000   0.6250000  )
       403        C      tau( 403) = (   0.8125000   0.1875000   0.6875000  )
       404        C      tau( 404) = (   0.8750000   0.0000000   0.6250000  )
       405        C      tau( 405) = (   0.9375000   0.0625000   0.6875000  )
       406        C      tau( 406) = (   0.8750000   0.1250000   0.5000000  )
       407        C      tau( 407) = (   0.9375000   0.1875000   0.5625000  )
       408        C      tau( 408) = (   0.7500000   0.0000000   0.7500000  )
       409        C      tau( 409) = (   0.8125000   0.0625000   0.8125000  )
       410        C      tau( 410) = (   0.7500000   0.1250000   0.8750000  )
       411        C      tau( 411) = (   0.8125000   0.1875000   0.9375000  )
       412        C      tau( 412) = (   0.8750000   0.0000000   0.8750000  )
       413        C      tau( 413) = (   0.9375000   0.0625000   0.9375000  )
       414        C      tau( 414) = (   0.8750000   0.1250000   0.7500000  )
       415        C      tau( 415) = (   0.9375000   0.1875000   0.8125000  )
       416        C      tau( 416) = (   0.7500000   0.2500000   0.0000000  )
       417        C      tau( 417) = (   0.8125000   0.3125000   0.0625000  )
       418        C      tau( 418) = (   0.7500000   0.3750000   0.1250000  )
       419        C      tau( 419) = (   0.8125000   0.4375000   0.1875000  )
       420        C      tau( 420) = (   0.8750000   0.2500000   0.1250000  )
       421        C      tau( 421) = (   0.9375000   0.3125000   0.1875000  )
       422        C      tau( 422) = (   0.8750000   0.3750000   0.0000000  )
       423        C      tau( 423) = (   0.9375000   0.4375000   0.0625000  )
       424        C      tau( 424) = (   0.7500000   0.2500000   0.2500000  )
       425        C      tau( 425) = (   0.8125000   0.3125000   0.3125000  )
       426        C      tau( 426) = (   0.7500000   0.3750000   0.3750000  )
       427        C      tau( 427) = (   0.8125000   0.4375000   0.4375000  )
       428        C      tau( 428) = (   0.8750000   0.2500000   0.3750000  )
       429        C      tau( 429) = (   0.9375000   0.3125000   0.4375000  )
       430        C      tau( 430) = (   0.8750000   0.3750000   0.2500000  )
       431        C      tau( 431) = (   0.9375000   0.4375000   0.3125000  )
       432        C      tau( 432) = (   0.7500000   0.2500000   0.5000000  )
       433        C      tau( 433) = (   0.8125000   0.3125000   0.5625000  )
       434        C      tau( 434) = (   0.7500000   0.3750000   0.6250000  )
       435        C      tau( 435) = (   0.8125000   0.4375000   0.6875000  )
       436        C      tau( 436) = (   0.8750000   0.2500000   0.6250000  )
       437        C      tau( 437) = (   0.9375000   0.3125000   0.6875000  )
       438        C      tau( 438) = (   0.8750000   0.3750000   0.5000000  )
       439        C      tau( 439) = (   0.9375000   0.4375000   0.5625000  )
       440        C      tau( 440) = (   0.7500000   0.2500000   0.7500000  )
       441        C      tau( 441) = (   0.8125000   0.3125000   0.8125000  )
       442        C      tau( 442) = (   0.7500000   0.3750000   0.8750000  )
       443        C      tau( 443) = (   0.8125000   0.4375000   0.9375000  )
       444        C      tau( 444) = (   0.8750000   0.2500000   0.8750000  )
       445        C      tau( 445) = (   0.9375000   0.3125000   0.9375000  )
       446        C      tau( 446) = (   0.8750000   0.3750000   0.7500000  )
       447        C      tau( 447) = (   0.9375000   0.4375000   0.8125000  )
       448        C      tau( 448) = (   0.7500000   0.5000000   0.0000000  )
       449        C      tau( 449) = (   0.8125000   0.5625000   0.0625000  )
       450        C      tau( 450) = (   0.7500000   0.6250000   0.1250000  )
       451        C      tau( 451) = (   0.8125000   0.6875000   0.1875000  )
       452        C      tau( 452) = (   0.8750000   0.5000000   0.1250000  )
       453        C      tau( 453) = (   0.9375000   0.5625000   0.1875000  )
       454        C      tau( 454) = (   0.8750000   0.6250000   0.0000000  )
       455        C      tau( 455) = (   0.9375000   0.6875000   0.0625000  )
       456        C      tau( 456) = (   0.7500000   0.5000000   0.2500000  )
       457        C      tau( 457) = (   0.8125000   0.5625000   0.3125000  )
       458        C      tau( 458) = (   0.7500000   0.6250000   0.3750000  )
       459        C      tau( 459) = (   0.8125000   0.6875000   0.4375000  )
       460        C      tau( 460) = (   0.8750000   0.5000000   0.3750000  )
       461        C      tau( 461) = (   0.9375000   0.5625000   0.4375000  )
       462        C      tau( 462) = (   0.8750000   0.6250000   0.2500000  )
       463        C      tau( 463) = (   0.9375000   0.6875000   0.3125000  )
       464        C      tau( 464) = (   0.7500000   0.5000000   0.5000000  )
       465        C      tau( 465) = (   0.8125000   0.5625000   0.5625000  )
       466        C      tau( 466) = (   0.7500000   0.6250000   0.6250000  )
       467        C      tau( 467) = (   0.8125000   0.6875000   0.6875000  )
       468        C      tau( 468) = (   0.8750000   0.5000000   0.6250000  )
       469        C      tau( 469) = (   0.9375000   0.5625000   0.6875000  )
       470        C      tau( 470) = (   0.8750000   0.6250000   0.5000000  )
       471        C      tau( 471) = (   0.9375000   0.6875000   0.5625000  )
       472        C      tau( 472) = (   0.7500000   0.5000000   0.7500000  )
       473        C      tau( 473) = (   0.8125000   0.5625000   0.8125000  )
       474        C      tau( 474) = (   0.7500000   0.6250000   0.8750000  )
       475        C      tau( 475) = (   0.8125000   0.6875000   0.9375000  )
       476        C      tau( 476) = (   0.8750000   0.5000000   0.8750000  )
       477        C      tau( 477) = (   0.9375000   0.5625000   0.9375000  )
       478        C      tau( 478) = (   0.8750000   0.6250000   0.7500000  )
       479        C      tau( 479) = (   0.9375000   0.6875000   0.8125000  )
       480        C      tau( 480) = (   0.7500000   0.7500000   0.0000000  )
       481        C      tau( 481) = (   0.8125000   0.8125000   0.0625000  )
       482        C      tau( 482) = (   0.7500000   0.8750000   0.1250000  )
       483        C      tau( 483) = (   0.8125000   0.9375000   0.1875000  )
       484        C      tau( 484) = (   0.8750000   0.7500000   0.1250000  )
       485        C      tau( 485) = (   0.9375000   0.8125000   0.1875000  )
       486        C      tau( 486) = (   0.8750000   0.8750000   0.0000000  )
       487        C      tau( 487) = (   0.9375000   0.9375000   0.0625000  )
       488        C      tau( 488) = (   0.7500000   0.7500000   0.2500000  )
       489        C      tau( 489) = (   0.8125000   0.8125000   0.3125000  )
       490        C      tau( 490) = (   0.7500000   0.8750000   0.3750000  )
       491        C      tau( 491) = (   0.8125000   0.9375000   0.4375000  )
       492        C      tau( 492) = (   0.8750000   0.7500000   0.3750000  )
       493        C      tau( 493) = (   0.9375000   0.8125000   0.4375000  )
       494        C      tau( 494) = (   0.8750000   0.8750000   0.2500000  )
       495        C      tau( 495) = (   0.9375000   0.9375000   0.3125000  )
       496        C      tau( 496) = (   0.7500000   0.7500000   0.5000000  )
       497        C      tau( 497) = (   0.8125000   0.8125000   0.5625000  )
       498        C      tau( 498) = (   0.7500000   0.8750000   0.6250000  )
       499        C      tau( 499) = (   0.8125000   0.9375000   0.6875000  )
       500        C      tau( 500) = (   0.8750000   0.7500000   0.6250000  )
       501        C      tau( 501) = (   0.9375000   0.8125000   0.6875000  )
       502        C      tau( 502) = (   0.8750000   0.8750000   0.5000000  )
       503        C      tau( 503) = (   0.9375000   0.9375000   0.5625000  )
       504        C      tau( 504) = (   0.7500000   0.7500000   0.7500000  )
       505        C      tau( 505) = (   0.8125000   0.8125000   0.8125000  )
       506        C      tau( 506) = (   0.7500000   0.8750000   0.8750000  )
       507        C      tau( 507) = (   0.8125000   0.9375000   0.9375000  )
       508        C      tau( 508) = (   0.8750000   0.7500000   0.8750000  )
       509        C      tau( 509) = (   0.9375000   0.8125000   0.9375000  )
       510        C      tau( 510) = (   0.8750000   0.8750000   0.7500000  )
       511        C      tau( 511) = (   0.9375000   0.9375000   0.8125000  )

     number of k points=     1
                       cart. coord. in units 2pi/alat
        k(    1) = (   0.0000000   0.0000000   0.0000000), wk =   1.0000000

     Dense  grid:   468093 G-vectors     FFT dimensions: ( 128, 128, 125)

     Estimated max dynamical RAM per process >       1.42 GB

     Estimated total dynamical RAM >      11.38 GB
     Generating pointlists ...
     new r_m :   0.0447 (alat units)  1.2040 (a.u.) for type    1
     new r_m :   0.0447 (alat units)  1.2040 (a.u.) for type    2

     Initial potential from superposition of free atoms

     starting charge    2041.4445, renormalised to    2046.0000
     Starting wfcs are random

     total cpu time spent up to now is        4.9 secs

     Self-consistent Calculation

     iteration #  1     ecut=    50.00 Ry     beta= 0.70
     Davidson diagonalization with overlap
     ethr =  1.00E-02,  avg # of iterations = 12.0

     total cpu time spent up to now is        8.9 secs

     total energy              =   -5819.80894950 Ry
     estimated scf accuracy    <      28.29029040 Ry

     total magnetization       =     2.00 Bohr mag/cell
     absolute magnetization    =     3.52 Bohr mag/cell

     iteration #  2     ecut=    50.00 Ry     beta= 0.70
     Davidson diagonalization with overlap
     ethr =  1.38E-03,  avg # of iterations =  3.5

     total cpu time spent up to now is       10.7 secs

     total energy              =   -5824.03248682 Ry
     estimated scf accuracy    <       1.06880919 Ry

     total magnetization       =     2.00 Bohr mag/cell
     absolute magnetization    =     2.89 Bohr mag/cell

     iteration #  3     ecut=    50.00 Ry     beta= 0.70
     Davidson diagonalization with overlap
     ethr =  5.22E-05,  avg # of iterations =  7.0

     total cpu time spent up to now is       13.1 secs

     total energy              =   -5824.40719425 Ry
     estimated scf accuracy    <       2.08384310 Ry

     total magnetization       =     2.00 Bohr mag/cell
     absolute magnetization    =     2.33 Bohr mag/cell

     iteration #  4     ecut=    50.00 Ry     beta= 0.70
     Davidson diagonalization with overlap
     ethr =  5.22E-05,  avg # of iterations =  8.0

     total cpu time spent up to now is       15.3 secs

     total energy              =   -5824.86932513 Ry
     estimated scf accuracy    <       0.06985014 Ry

     total magnetization       =     2.00 Bohr mag/cell
     absolute magnetization    =     2.35 Bohr mag/cell

     iteration #  5     ecut=    50.00 Ry     beta= 0.70
     Davidson diagonalization with overlap
     ethr =  3.41E-06,  avg # of iterations =  7.0

     total cpu time spent up to now is       17.4 secs

     total energy              =   -5824.88334814 Ry
     estimated scf accuracy    <       0.01552020 Ry

     total magnetization       =     2.00 Bohr mag/cell
     absolute magnetization    =     2.28 Bohr mag/cell

     iteration #  6     ecut=    50.00 Ry     beta= 0.70
     Davidson diagonalization with overlap
     ethr =  7.59E-07,  avg # of iterations =  5.5

     total cpu time spent up to now is       19.3 secs

     total energy              =   -5824.88768678 Ry
     estimated scf accuracy    <       0.00114709 Ry

     total magnetization       =     2.00 Bohr mag/cell
     absolute magnetization    =     2.25 Bohr mag/cell

     iteration #  7     ecut=    50.00 Ry     beta= 0.70
     Davidson diagonalization with overlap
     ethr =  5.61E-08,  avg # of iterations =  8.0

     total cpu time spent up to now is       21.5 secs

     total energy              =   -5824.88817068 Ry
     estimated scf accuracy    <       0.00019303 Ry

     total magnetization       =     2.00 Bohr mag/cell
     absolute magnetization    =     2.23 Bohr mag/cell

     iteration #  8     ecut=    50.00 Ry     beta= 0.70
     Davidson diagonalization with overlap
     ethr =  9.43E-09,  avg # of iterations =  7.0

     total cpu time spent up to now is       23.5 secs

     total energy              =   -5824.88824715 Ry
     estimated scf accuracy    <       0.00003572 Ry

     total magnetization       =     2.00 Bohr mag/cell
     absolute magnetization    =     2.22 Bohr mag/cell

     iteration #  9     ecut=    50.00 Ry     beta= 0.70
     Davidson diagonalization with overlap
     ethr =  1.75E-09,  avg # of iterations =  8.0

     total cpu time spent up to now is       25.7 secs

     total energy              =   -5824.88826466 Ry
     estimated scf accuracy    <       0.00000989 Ry

     total magnetization       =     2.00 Bohr mag/cell
     absolute magnetization    =     2.22 Bohr mag/cell

     iteration # 10     ecut=    50.00 Ry     beta= 0.70
     Davidson diagonalization with overlap
     ethr =  4.83E-10,  avg # of iterations =  7.5

     total cpu time spent up to now is       27.9 secs

     total energy              =   -5824.88826852 Ry
     estimated scf accuracy    <       0.00000349 Ry

     total magnetization       =     2.00 Bohr mag/cell
     absolute magnetization    =     2.21 Bohr mag/cell

     iteration # 11     ecut=    50.00 Ry     beta= 0.70
     Davidson diagonalization with overlap
     ethr =  1.70E-10,  avg # of iterations =  7.0
 
     Magnetic moment per site  (integrated on atomic sphere of radius R)
     atom   1 (R=0.045)  charge=  2.0123  magn=  0.0152
     atom   2 (R=0.045)  charge=  2.0045  magn=  0.0011
     atom   3 (R=0.045)  charge=  1.9382  magn=  0.2774
     atom   4 (R=0.045)  charge=  2.0103  magn=  0.0029
     atom   5 (R=0.045)  charge=  1.9658  magn=  0.0032
     atom   6 (R=0.045)  charge=  2.0109  magn=  0.0040
     atom   7 (R=0.045)  charge=  2.0045  magn=  0.0011
     atom   8 (R=0.045)  charge=  2.0122  magn=  0.0028
     atom   9 (R=0.045)  charge=  1.9677  magn=  0.0032
     atom  10 (R=0.045)  charge=  2.0125  magn=  0.0028
     atom  11 (R=0.045)  charge=  2.0113  magn= -0.0004
     atom  12 (R=0.045)  charge=  2.0164  magn=  0.0001
     atom  13 (R=0.045)  charge=  2.0119  magn= -0.0000
     atom  14 (R=0.045)  charge=  3.0480  magn= -0.0019
     atom  15 (R=0.045)  charge=  1.9677  magn=  0.0032
     atom  16 (R=0.045)  charge=  2.0113  magn=  0.0000
     atom  17 (R=0.045)  charge=  2.0123  magn= -0.0000
     atom  18 (R=0.045)  charge=  2.0135  magn=  0.0001
     atom  19 (R=0.045)  charge=  2.0126  magn= -0.0000
     atom  20 (R=0.045)  charge=  2.0135  magn=  0.0001
     atom  21 (R=0.045)  charge=  2.0126  magn= -0.0001
     atom  22 (R=0.045)  charge=  2.0114  magn=  0.0004
     atom  23 (R=0.045)  charge=  2.0122  magn=  0.0000
     atom  24 (R=0.045)  charge=  2.0132  magn=  0.0001
     atom  25 (R=0.045)  charge=  2.0107  magn= -0.0001
     atom  26 (R=0.045)  charge=  2.0111  magn=  0.0011
     atom  27 (R=0.045)  charge=  2.0123  magn= -0.0006
     atom  28 (R=0.045)  charge=  2.0112  magn= -0.0000
     atom  29 (R=0.045)  charge=  2.0140  magn= -0.0006
     atom  30 (R=0.045)  charge=  2.0132  magn=  0.0002
     atom  31 (R=0.045)  charge=  2.0107  magn= -0.0001
     atom  32 (R=0.045)  charge=  2.0105  magn=  0.0053
     atom  33 (R=0.045)  charge=  2.0053  magn= -0.0076
     atom  34 (R=0.045)  charge=  2.0091  magn=  0.0054
     atom  35 (R=0.045)  charge=  2.0095  magn= -0.0007
     atom  36 (R=0.045)  charge=  1.9381  magn=  0.2775
     atom  37 (R=0.045)  charge=  2.0018  magn=  0.0011
     atom  38 (R=0.045)  charge=  2.0124  magn=  0.0135
     atom  39 (R=0.045)  charge=  2.0129  magn= -0.0009
     atom  40 (R=0.045)  charge=  1.9400  magn=  0.2776
     atom  41 (R=0.045)  charge=  2.0036  magn=  0.0011
     atom  42 (R=0.045)  charge=  2.0131  magn=  0.0152
     atom  43 (R=0.045)  charge=  2.0126  magn=  0.0029
     atom  44 (R=0.045)  charge=  2.0125  magn=  0.0029
     atom  45 (R=0.045)  charge=  2.0118  magn=  0.0000
     atom  46 (R=0.045)  charge=  2.0114  magn=  0.0041
     atom  47 (R=0.045)  charge=  2.0131  magn= -0.0006
     atom  48 (R=0.045)  charge=  2.0110  magn=  0.0004
     atom  49 (R=0.045)  charge=  2.0122  magn=  0.0000
     atom  50 (R=0.045)  charge=  2.0135  magn=  0.0000
     atom  51 (R=0.045)  charge=  2.0126  magn=  0.0000
     atom  52 (R=0.045)  charge=  2.0135  magn=  0.0001
     atom  53 (R=0.045)  charge=  2.0126  magn=  0.0000
     atom  54 (R=0.045)  charge=  2.0108  magn=  0.0000
     atom  55 (R=0.045)  charge=  2.0123  magn=  0.0000
     atom  56 (R=0.045)  charge=  2.0132  magn=  0.0002
     atom  57 (R=0.045)  charge=  2.0107  magn= -0.0000
     atom  58 (R=0.045)  charge=  2.0112  magn=  0.0001
     atom  59 (R=0.045)  charge=  2.0139  magn=  0.0013
     atom  60 (R=0.045)  charge=  2.0111  magn=  0.0011
     atom  61 (R=0.045)  charge=  2.0129  magn= -0.0009
     atom  62 (R=0.045)  charge=  2.0132  magn=  0.0001
     atom  63 (R=0.045)  charge=  2.0107  magn= -0.0001
     atom  64 (R=0.045)  charge=  2.0126  magn=  0.0001
     atom  65 (R=0.045)  charge=  2.0134  magn= -0.0001
     atom  66 (R=0.045)  charge=  2.0113  magn=  0.0002
     atom  67 (R=0.045)  charge=  2.0107  magn= -0.0000
     atom  68 (R=0.045)  charge=  2.0111  magn=  0.0011
     atom  69 (R=0.045)  charge=  2.0107  magn= -0.0000
     atom  70 (R=0.045)  charge=  2.0127  magn=  0.0001
     atom  71 (R=0.045)  charge=  2.0135  magn=  0.0000
     atom  72 (R=0.045)  charge=  2.0130  magn=  0.0011
     atom  73 (R=0.045)  charge=  2.0125  magn= -0.0000
     atom  74 (R=0.045)  charge=  2.0135  magn=  0.0001
     atom  75 (R=0.045)  charge=  2.0123  magn=  0.0000
     atom  76 (R=0.045)  charge=  2.0134  magn= -0.0000
     atom  77 (R=0.045)  charge=  2.0124  magn=  0.0000
     atom  78 (R=0.045)  charge=  2.0132  magn=  0.0002
     atom  79 (R=0.045)  charge=  2.0126  magn= -0.0000
     atom  80 (R=0.045)  charge=  2.0112  magn=  0.0014
     atom  81 (R=0.045)  charge=  2.0124  magn=  0.0005
     atom  82 (R=0.045)  charge=  2.0136  magn=  0.0002
     atom  83 (R=0.045)  charge=  2.0127  magn=  0.0002
     atom  84 (R=0.045)  charge=  2.0135  magn= -0.0000
     atom  85 (R=0.045)  charge=  2.0126  magn= -0.0000
     atom  86 (R=0.045)  charge=  2.0112  magn= -0.0000
     atom  87 (R=0.045)  charge=  2.0124  magn= -0.0000
     atom  88 (R=0.045)  charge=  2.0132  magn=  0.0000
     atom  89 (R=0.045)  charge=  2.0109  magn=  0.0003
     atom  90 (R=0.045)  charge=  2.0113  magn=  0.0000
     atom  91 (R=0.045)  charge=  2.0135  magn= -0.0000
     atom  92 (R=0.045)  charge=  2.0114  magn=  0.0010
     atom  93 (R=0.045)  charge=  2.0135  magn= -0.0001
     atom  94 (R=0.045)  charge=  2.0132  magn=  0.0001
     atom  95 (R=0.045)  charge=  2.0108  magn= -0.0000
     atom  96 (R=0.045)  charge=  2.0127  magn=  0.0001
     atom  97 (R=0.045)  charge=  2.0134  magn= -0.0000
     atom  98 (R=0.045)  charge=  2.0111  magn=  0.0004
     atom  99 (R=0.045)  charge=  2.0098  magn= -0.0004
     atom 100 (R=0.045)  charge=  2.0113  magn=  0.0001
     atom 101 (R=0.045)  charge=  2.0107  magn=  0.0000
     atom 102 (R=0.045)  charge=  2.0124  magn=  0.0001
     atom 103 (R=0.045)  charge=  2.0130  magn= -0.0000
     atom 104 (R=0.045)  charge=  2.0132  magn=  0.0001
     atom 105 (R=0.045)  charge=  2.0126  magn= -0.0000
     atom 106 (R=0.045)  charge=  2.0137  magn=  0.0000
     atom 107 (R=0.045)  charge=  2.0123  magn=  0.0002
     atom 108 (R=0.045)  charge=  2.0135  magn=  0.0000
     atom 109 (R=0.045)  charge=  2.0123  magn= -0.0000
     atom 110 (R=0.045)  charge=  2.0134  magn=  0.0005
     atom 111 (R=0.045)  charge=  2.0122  magn= -0.0000
     atom 112 (R=0.045)  charge=  2.0112  magn= -0.0000
     atom 113 (R=0.045)  charge=  2.0124  magn=  0.0001
     atom 114 (R=0.045)  charge=  2.0135  magn= -0.0000
     atom 115 (R=0.045)  charge=  2.0126  magn= -0.0000
     atom 116 (R=0.045)  charge=  2.0136  magn=  0.0000
     atom 117 (R=0.045)  charge=  2.0127  magn=  0.0000
     atom 118 (R=0.045)  charge=  2.0112  magn=  0.0000
     atom 119 (R=0.045)  charge=  2.0123  magn= -0.0000
     atom 120 (R=0.045)  charge=  2.0132  magn=  0.0002
     atom 121 (R=0.045)  charge=  2.0108  magn=  0.0005
     atom 122 (R=0.045)  charge=  2.0113  magn=  0.0014
     atom 123 (R=0.045)  charge=  2.0138  magn=  0.0029
     atom 124 (R=0.045)  charge=  2.0112  magn= -0.0000
     atom 125 (R=0.045)  charge=  2.0135  magn= -0.0000
     atom 126 (R=0.045)  charge=  2.0132  magn= -0.0000
     atom 127 (R=0.045)  charge=  2.0109  magn= -0.0000
     atom 128 (R=0.045)  charge=  2.0125  magn=  0.0002
     atom 129 (R=0.045)  charge=  2.0130  magn=  0.0000
     atom 130 (R=0.045)  charge=  2.0103  magn=  0.0029
     atom 131 (R=0.045)  charge=  2.0098  magn= -0.0004
     atom 132 (R=0.045)  charge=  2.0114  magn=  0.0000
     atom 133 (R=0.045)  charge=  2.0107  magn= -0.0000
     atom 134 (R=0.045)  charge=  2.0124  magn=  0.0000
     atom 135 (R=0.045)  charge=  2.0134  magn= -0.0000
     atom 136 (R=0.045)  charge=  2.0160  magn=  0.0001
     atom 137 (R=0.045)  charge=  2.0122  magn=  0.0000
     atom 138 (R=0.045)  charge=  2.0164  magn=  0.0001
     atom 139 (R=0.045)  charge=  2.0123  magn=  0.0002
     atom 140 (R=0.045)  charge=  2.0136  magn=  0.0000
     atom 141 (R=0.045)  charge=  2.0123  magn= -0.0000
     atom 142 (R=0.045)  charge=  2.0134  magn=  0.0004
     atom 143 (R=0.045)  charge=  2.0126  magn=  0.0000
     atom 144 (R=0.045)  charge=  2.0112  magn=  0.0000
     atom 145 (R=0.045)  charge=  2.0123  magn= -0.0000
     atom 146 (R=0.045)  charge=  2.0135  magn=  0.0000
     atom 147 (R=0.045)  charge=  2.0126  magn=  0.0000
     atom 148 (R=0.045)  charge=  2.0135  magn= -0.0000
     atom 149 (R=0.045)  charge=  2.0127  magn=  0.0000
     atom 150 (R=0.045)  charge=  2.0112  magn=  0.0001
     atom 151 (R=0.045)  charge=  2.0124  magn= -0.0000
     atom 152 (R=0.045)  charge=  2.0132  magn=  0.0000
     atom 153 (R=0.045)  charge=  2.0109  magn= -0.0000
     atom 154 (R=0.045)  charge=  2.0112  magn= -0.0000
     atom 155 (R=0.045)  charge=  2.0138  magn=  0.0029
     atom 156 (R=0.045)  charge=  2.0112  magn= -0.0000
     atom 157 (R=0.045)  charge=  2.0135  magn=  0.0000
     atom 158 (R=0.045)  charge=  2.0132  magn= -0.0000
     atom 159 (R=0.045)  charge=  2.0108  magn=  0.0005
     atom 160 (R=0.045)  charge=  2.0123  magn=  0.0152
     atom 161 (R=0.045)  charge=  2.0131  magn= -0.0008
     atom 162 (R=0.045)  charge=  2.0109  magn=  0.0152
     atom 163 (R=0.045)  charge=  2.0111  magn=  0.0029
     atom 164 (R=0.045)  charge=  2.0111  magn=  0.0005
     atom 165 (R=0.045)  charge=  2.0107  magn= -0.0000
     atom 166 (R=0.045)  charge=  2.0127  magn=  0.0008
     atom 167 (R=0.045)  charge=  2.0135  magn= -0.0000
     atom 168 (R=0.045)  charge=  2.0122  magn=  0.0029
     atom 169 (R=0.045)  charge=  2.0122  magn=  0.0000
     atom 170 (R=0.045)  charge=  2.0134  magn=  0.0002
     atom 171 (R=0.045)  charge=  2.0124  magn=  0.0001
     atom 172 (R=0.045)  charge=  2.0137  magn= -0.0000
     atom 173 (R=0.045)  charge=  2.0123  magn=  0.0000
     atom 174 (R=0.045)  charge=  2.0129  magn=  0.0000
     atom 175 (R=0.045)  charge=  2.0126  magn= -0.0000
     atom 176 (R=0.045)  charge=  2.0113  magn= -0.0000
     atom 177 (R=0.045)  charge=  2.0123  magn=  0.0000
     atom 178 (R=0.045)  charge=  2.0135  magn=  0.0000
     atom 179 (R=0.045)  charge=  2.0126  magn=  0.0000
     atom 180 (R=0.045)  charge=  2.0135  magn=  0.0001
     atom 181 (R=0.045)  charge=  2.0126  magn= -0.0000
     atom 182 (R=0.045)  charge=  2.0111  magn= -0.0000
     atom 183 (R=0.045)  charge=  2.0123  magn=  0.0000
     atom 184 (R=0.045)  charge=  2.0132  magn=  0.0001
     atom 185 (R=0.045)  charge=  2.0107  magn= -0.0001
     atom 186 (R=0.045)  charge=  2.0113  magn=  0.0009
     atom 187 (R=0.045)  charge=  2.0134  magn= -0.0000
     atom 188 (R=0.045)  charge=  2.0113  magn=  0.0014
     atom 189 (R=0.045)  charge=  2.0135  magn= -0.0000
     atom 190 (R=0.045)  charge=  2.0132  magn=  0.0001
     atom 191 (R=0.045)  charge=  2.0108  magn= -0.0000
     atom 192 (R=0.045)  charge=  2.0127  magn=  0.0009
     atom 193 (R=0.045)  charge=  2.0135  magn= -0.0001
     atom 194 (R=0.045)  charge=  2.0113  magn=  0.0001
     atom 195 (R=0.045)  charge=  2.0108  magn=  0.0000
     atom 196 (R=0.045)  charge=  2.0113  magn=  0.0013
     atom 197 (R=0.045)  charge=  2.0108  magn=  0.0005
     atom 198 (R=0.045)  charge=  2.0127  magn=  0.0001
     atom 199 (R=0.045)  charge=  2.0135  magn= -0.0000
     atom 200 (R=0.045)  charge=  2.0131  magn= -0.0000
     atom 201 (R=0.045)  charge=  2.0127  magn=  0.0000
     atom 202 (R=0.045)  charge=  2.0135  magn= -0.0000
     atom 203 (R=0.045)  charge=  2.0123  magn= -0.0000
     atom 204 (R=0.045)  charge=  2.0135  magn=  0.0000
     atom 205 (R=0.045)  charge=  2.0124  magn= -0.0000
     atom 206 (R=0.045)  charge=  2.0132  magn= -0.0000
     atom 207 (R=0.045)  charge=  2.0127  magn= -0.0000
     atom 208 (R=0.045)  charge=  2.0111  magn= -0.0000
     atom 209 (R=0.045)  charge=  2.0124  magn=  0.0000
     atom 210 (R=0.045)  charge=  2.0135  magn=  0.0000
     atom 211 (R=0.045)  charge=  2.0127  magn=  0.0000
     atom 212 (R=0.045)  charge=  2.0135  magn=  0.0000
     atom 213 (R=0.045)  charge=  2.0127  magn= -0.0000
     atom 214 (R=0.045)  charge=  2.0111  magn=  0.0000
     atom 215 (R=0.045)  charge=  2.0123  magn=  0.0000
     atom 216 (R=0.045)  charge=  2.0132  magn=  0.0001
     atom 217 (R=0.045)  charge=  2.0108  magn= -0.0000
     atom 218 (R=0.045)  charge=  2.0113  magn=  0.0001
     atom 219 (R=0.045)  charge=  2.0135  magn= -0.0000
     atom 220 (R=0.045)  charge=  2.0113  magn=  0.0003
     atom 221 (R=0.045)  charge=  2.0135  magn= -0.0000
     atom 222 (R=0.045)  charge=  2.0132  magn=  0.0001
     atom 223 (R=0.045)  charge=  2.0108  magn= -0.0000
     atom 224 (R=0.045)  charge=  2.0127  magn=  0.0000
     atom 225 (R=0.045)  charge=  2.0135  magn= -0.0000
     atom 226 (R=0.045)  charge=  2.0114  magn=  0.0000
     atom 227 (R=0.045)  charge=  2.0107  magn=  0.0002
     atom 228 (R=0.045)  charge=  2.0113  magn=  0.0000
     atom 229 (R=0.045)  charge=  2.0108  magn=  0.0000
     atom 230 (R=0.045)  charge=  2.0127  magn=  0.0000
     atom 231 (R=0.045)  charge=  2.0135  magn=  0.0000
     atom 232 (R=0.045)  charge=  2.0132  magn=  0.0000
     atom 233 (R=0.045)  charge=  2.0126  magn= -0.0000
     atom 234 (R=0.045)  charge=  2.0136  magn=  0.0000
     atom 235 (R=0.045)  charge=  2.0123  magn= -0.0000
     atom 236 (R=0.045)  charge=  2.0135  magn=  0.0000
     atom 237 (R=0.045)  charge=  2.0123  magn= -0.0000
     atom 238 (R=0.045)  charge=  2.0133  magn=  0.0000
     atom 239 (R=0.045)  charge=  2.0126  magn=  0.0000
     atom 240 (R=0.045)  charge=  2.0112  magn=  0.0000
     atom 241 (R=0.045)  charge=  2.0123  magn=  0.0000
     atom 242 (R=0.045)  charge=  2.0135  magn=  0.0000
     atom 243 (R=0.045)  charge=  2.0127  magn= -0.0000
     atom 244 (R=0.045)  charge=  2.0135  magn= -0.0000
     atom 245 (R=0.045)  charge=  2.0127  magn=  0.0000
     atom 246 (R=0.045)  charge=  2.0112  magn= -0.0000
     atom 247 (R=0.045)  charge=  2.0123  magn=  0.0000
     atom 248 (R=0.045)  charge=  2.0132  magn=  0.0000
     atom 249 (R=0.045)  charge=  2.0108  magn= -0.0000
     atom 250 (R=0.045)  charge=  2.0112  magn=  0.0000
     atom 251 (R=0.045)  charge=  2.0136  magn=  0.0001
     atom 252 (R=0.045)  charge=  2.0113  magn=  0.0000
     atom 253 (R=0.045)  charge=  2.0135  magn=  0.0000
     atom 254 (R=0.045)  charge=  2.0132  magn=  0.0000
     atom 255 (R=0.045)  charge=  2.0108  magn= -0.0000
     atom 256 (R=0.045)  charge=  2.0127  magn=  0.0000
     atom 257 (R=0.045)  charge=  2.0135  magn=  0.0000
     atom 258 (R=0.045)  charge=  2.0113  magn=  0.0001
     atom 259 (R=0.045)  charge=  2.0107  magn= -0.0001
     atom 260 (R=0.045)  charge=  2.0113  magn=  0.0001
     atom 261 (R=0.045)  charge=  2.0107  magn= -0.0000
     atom 262 (R=0.045)  charge=  2.0127  magn=  0.0001
     atom 263 (R=0.045)  charge=  2.0134  magn= -0.0000
     atom 264 (R=0.045)  charge=  2.0132  magn=  0.0000
     atom 265 (R=0.045)  charge=  2.0126  magn= -0.0000
     atom 266 (R=0.045)  charge=  2.0135  magn=  0.0001
     atom 267 (R=0.045)  charge=  2.0123  magn=  0.0000
     atom 268 (R=0.045)  charge=  2.0135  magn= -0.0000
     atom 269 (R=0.045)  charge=  2.0124  magn=  0.0000
     atom 270 (R=0.045)  charge=  2.0132  magn=  0.0002
     atom 271 (R=0.045)  charge=  2.0125  magn= -0.0001
     atom 272 (R=0.045)  charge=  2.0112  magn=  0.0000
     atom 273 (R=0.045)  charge=  2.0123  magn= -0.0000
     atom 274 (R=0.045)  charge=  2.0136  magn=  0.0001
     atom 275 (R=0.045)  charge=  2.0127  magn=  0.0002
     atom 276 (R=0.045)  charge=  2.0135  magn=  0.0000
     atom 277 (R=0.045)  charge=  2.0126  magn= -0.0000
     atom 278 (R=0.045)  charge=  2.0112  magn= -0.0000
     atom 279 (R=0.045)  charge=  2.0124  magn=  0.0005
     atom 280 (R=0.045)  charge=  2.0132  magn=  0.0000
     atom 281 (R=0.045)  charge=  2.0108  magn= -0.0000
     atom 282 (R=0.045)  charge=  2.0112  magn=  0.0000
     atom 283 (R=0.045)  charge=  2.0135  magn= -0.0000
     atom 284 (R=0.045)  charge=  2.0113  magn=  0.0001
     atom 285 (R=0.045)  charge=  2.0135  magn= -0.0001
     atom 286 (R=0.045)  charge=  2.0132  magn=  0.0001
     atom 287 (R=0.045)  charge=  2.0109  magn=  0.0003
     atom 288 (R=0.045)  charge=  2.0127  magn=  0.0000
     atom 289 (R=0.045)  charge=  2.0135  magn=  0.0001
     atom 290 (R=0.045)  charge=  2.0112  magn=  0.0000
     atom 291 (R=0.045)  charge=  2.0108  magn=  0.0000
     atom 292 (R=0.045)  charge=  2.0113  magn=  0.0002
     atom 293 (R=0.045)  charge=  2.0106  magn= -0.0000
     atom 294 (R=0.045)  charge=  2.0127  magn= -0.0000
     atom 295 (R=0.045)  charge=  2.0136  magn= -0.0000
     atom 296 (R=0.045)  charge=  2.0132  magn=  0.0002
     atom 297 (R=0.045)  charge=  2.0126  magn= -0.0000
     atom 298 (R=0.045)  charge=  2.0135  magn=  0.0000
     atom 299 (R=0.045)  charge=  2.0123  magn= -0.0000
     atom 300 (R=0.045)  charge=  2.0135  magn=  0.0001
     atom 301 (R=0.045)  charge=  2.0123  magn= -0.0001
     atom 302 (R=0.045)  charge=  2.0132  magn=  0.0001
     atom 303 (R=0.045)  charge=  2.0126  magn= -0.0001
     atom 304 (R=0.045)  charge=  2.0112  magn= -0.0000
     atom 305 (R=0.045)  charge=  2.0123  magn= -0.0000
     atom 306 (R=0.045)  charge=  2.0135  magn=  0.0000
     atom 307 (R=0.045)  charge=  2.0126  magn= -0.0000
     atom 308 (R=0.045)  charge=  2.0136  magn=  0.0002
     atom 309 (R=0.045)  charge=  2.0127  magn=  0.0000
     atom 310 (R=0.045)  charge=  2.0112  magn=  0.0001
     atom 311 (R=0.045)  charge=  2.0123  magn= -0.0000
     atom 312 (R=0.045)  charge=  2.0132  magn=  0.0002
     atom 313 (R=0.045)  charge=  2.0108  magn=  0.0000
     atom 314 (R=0.045)  charge=  2.0113  magn=  0.0001
     atom 315 (R=0.045)  charge=  2.0135  magn= -0.0000
     atom 316 (R=0.045)  charge=  2.0113  magn=  0.0000
     atom 317 (R=0.045)  charge=  2.0136  magn= -0.0000
     atom 318 (R=0.045)  charge=  2.0132  magn= -0.0000
     atom 319 (R=0.045)  charge=  2.0108  magn=  0.0000
     atom 320 (R=0.045)  charge=  2.0127  magn=  0.0001
     atom 321 (R=0.045)  charge=  2.0135  magn= -0.0000
     atom 322 (R=0.045)  charge=  2.0113  magn=  0.0002
     atom 323 (R=0.045)  charge=  2.0108  magn=  0.0002
     atom 324 (R=0.045)  charge=  2.0113  magn= -0.0000
     atom 325 (R=0.045)  charge=  2.0109  magn=  0.0003
     atom 326 (R=0.045)  charge=  2.0127  magn=  0.0000
     atom 327 (R=0.045)  charge=  2.0135  magn= -0.0000
     atom 328 (R=0.045)  charge=  2.0132  magn=  0.0000
     atom 329 (R=0.045)  charge=  2.0126  magn= -0.0000
     atom 330 (R=0.045)  charge=  2.0135  magn=  0.0000
     atom 331 (R=0.045)  charge=  2.0123  magn=  0.0000
     atom 332 (R=0.045)  charge=  2.0136  magn=  0.0001
     atom 333 (R=0.045)  charge=  2.0123  magn= -0.0000
     atom 334 (R=0.045)  charge=  2.0132  magn=  0.0001
     atom 335 (R=0.045)  charge=  2.0126  magn= -0.0000
     atom 336 (R=0.045)  charge=  2.0112  magn=  0.0000
     atom 337 (R=0.045)  charge=  2.0123  magn= -0.0000
     atom 338 (R=0.045)  charge=  2.0135  magn=  0.0000
     atom 339 (R=0.045)  charge=  2.0127  magn=  0.0000
     atom 340 (R=0.045)  charge=  2.0135  magn=  0.0001
     atom 341 (R=0.045)  charge=  2.0126  magn= -0.0001
     atom 342 (R=0.045)  charge=  2.0112  magn=  0.0001
     atom 343 (R=0.045)  charge=  2.0123  magn= -0.0000
     atom 344 (R=0.045)  charge=  2.0132  magn=  0.0001
     atom 345 (R=0.045)  charge=  2.0108  magn= -0.0000
     atom 346 (R=0.045)  charge=  2.0113  magn=  0.0001
     atom 347 (R=0.045)  charge=  2.0135  magn= -0.0000
     atom 348 (R=0.045)  charge=  2.0113  magn=  0.0000
     atom 349 (R=0.045)  charge=  2.0136  magn= -0.0000
     atom 350 (R=0.045)  charge=  2.0132  magn=  0.0001
     atom 351 (R=0.045)  charge=  2.0108  magn= -0.0000
     atom 352 (R=0.045)  charge=  2.0127  magn=  0.0000
     atom 353 (R=0.045)  charge=  2.0135  magn= -0.0000
     atom 354 (R=0.045)  charge=  2.0113  magn=  0.0000
     atom 355 (R=0.045)  charge=  2.0108  magn=  0.0000
     atom 356 (R=0.045)  charge=  2.0113  magn=  0.0002
     atom 357 (R=0.045)  charge=  2.0108  magn=  0.0005
     atom 358 (R=0.045)  charge=  2.0127  magn=  0.0001
     atom 359 (R=0.045)  charge=  2.0135  magn= -0.0001
     atom 360 (R=0.045)  charge=  2.0132  magn=  0.0000
     atom 361 (R=0.045)  charge=  2.0127  magn=  0.0000
     atom 362 (R=0.045)  charge=  2.0135  magn= -0.0000
     atom 363 (R=0.045)  charge=  2.0124  magn= -0.0000
     atom 364 (R=0.045)  charge=  2.0135  magn= -0.0000
     atom 365 (R=0.045)  charge=  2.0124  magn=  0.0000
     atom 366 (R=0.045)  charge=  2.0132  magn= -0.0000
     atom 367 (R=0.045)  charge=  2.0127  magn=  0.0000
     atom 368 (R=0.045)  charge=  2.0112  magn= -0.0000
     atom 369 (R=0.045)  charge=  2.0123  magn=  0.0000
     atom 370 (R=0.045)  charge=  2.0135  magn= -0.0000
     atom 371 (R=0.045)  charge=  2.0127  magn=  0.0000
     atom 372 (R=0.045)  charge=  2.0135  magn= -0.0000
     atom 373 (R=0.045)  charge=  2.0127  magn=  0.0000
     atom 374 (R=0.045)  charge=  2.0111  magn=  0.0000
     atom 375 (R=0.045)  charge=  2.0124  magn=  0.0000
     atom 376 (R=0.045)  charge=  2.0132  magn= -0.0000
     atom 377 (R=0.045)  charge=  2.0108  magn=  0.0000
     atom 378 (R=0.045)  charge=  2.0113  magn=  0.0000
     atom 379 (R=0.045)  charge=  2.0135  magn= -0.0000
     atom 380 (R=0.045)  charge=  2.0113  magn=  0.0001
     atom 381 (R=0.045)  charge=  2.0135  magn= -0.0001
     atom 382 (R=0.045)  charge=  2.0132  magn=  0.0000
     atom 383 (R=0.045)  charge=  2.0108  magn= -0.0000
     atom 384 (R=0.045)  charge=  2.0127  magn=  0.0009
     atom 385 (R=0.045)  charge=  2.0129  magn= -0.0009
     atom 386 (R=0.045)  charge=  2.0111  magn=  0.0011
     atom 387 (R=0.045)  charge=  2.0095  magn= -0.0007
     atom 388 (R=0.045)  charge=  2.0109  magn=  0.0152
     atom 389 (R=0.045)  charge=  2.0018  magn=  0.0011
     atom 390 (R=0.045)  charge=  2.0124  magn=  0.0135
     atom 391 (R=0.045)  charge=  2.0053  magn= -0.0076
     atom 392 (R=0.045)  charge=  2.0131  magn= -0.0000
     atom 393 (R=0.045)  charge=  2.0131  magn= -0.0006
     atom 394 (R=0.045)  charge=  2.0134  magn= -0.0000
     atom 395 (R=0.045)  charge=  2.0126  magn=  0.0029
     atom 396 (R=0.045)  charge=  2.0134  magn=  0.0002
     atom 397 (R=0.045)  charge=  2.0118  magn=  0.0000
     atom 398 (R=0.045)  charge=  2.0114  magn=  0.0040
     atom 399 (R=0.045)  charge=  2.0036  magn=  0.0012
     atom 400 (R=0.045)  charge=  2.0111  magn=  0.0000
     atom 401 (R=0.045)  charge=  2.0123  magn=  0.0000
     atom 402 (R=0.045)  charge=  2.0135  magn=  0.0000
     atom 403 (R=0.045)  charge=  2.0126  magn=  0.0000
     atom 404 (R=0.045)  charge=  2.0135  magn=  0.0000
     atom 405 (R=0.045)  charge=  2.0126  magn=  0.0000
     atom 406 (R=0.045)  charge=  2.0108  magn=  0.0000
     atom 407 (R=0.045)  charge=  2.0122  magn= -0.0000
     atom 408 (R=0.045)  charge=  2.0132  magn=  0.0001
     atom 409 (R=0.045)  charge=  2.0107  magn= -0.0001
     atom 410 (R=0.045)  charge=  2.0114  magn=  0.0010
     atom 411 (R=0.045)  charge=  2.0139  magn=  0.0013
     atom 412 (R=0.045)  charge=  2.0113  magn=  0.0009
     atom 413 (R=0.045)  charge=  2.0129  magn= -0.0009
     atom 414 (R=0.045)  charge=  2.0132  magn=  0.0001
     atom 415 (R=0.045)  charge=  2.0106  magn= -0.0000
     atom 416 (R=0.045)  charge=  2.0126  magn=  0.0001
     atom 417 (R=0.045)  charge=  2.0138  magn= -0.0004
     atom 418 (R=0.045)  charge=  2.0112  magn=  0.0001
     atom 419 (R=0.045)  charge=  2.0112  magn=  0.0013
     atom 420 (R=0.045)  charge=  2.0091  magn=  0.0054
     atom 421 (R=0.045)  charge=  2.0026  magn= -0.0076
     atom 422 (R=0.045)  charge=  2.0123  magn=  0.0002
     atom 423 (R=0.045)  charge=  2.0138  magn= -0.0004
     atom 424 (R=0.045)  charge=  2.0130  magn=  0.0011
     atom 425 (R=0.045)  charge=  2.0120  magn= -0.0009
     atom 426 (R=0.045)  charge=  2.0135  magn=  0.0009
     atom 427 (R=0.045)  charge=  2.0122  magn= -0.0001
     atom 428 (R=0.045)  charge=  2.0131  magn=  0.0153
     atom 429 (R=0.045)  charge=  2.0119  magn= -0.0008
     atom 430 (R=0.045)  charge=  2.0128  magn=  0.0135
     atom 431 (R=0.045)  charge=  2.0120  magn= -0.0009
     atom 432 (R=0.045)  charge=  2.0112  magn=  0.0014
     atom 433 (R=0.045)  charge=  2.0123  magn= -0.0001
     atom 434 (R=0.045)  charge=  2.0135  magn=  0.0000
     atom 435 (R=0.045)  charge=  2.0127  magn=  0.0000
     atom 436 (R=0.045)  charge=  2.0135  magn=  0.0000
     atom 437 (R=0.045)  charge=  2.0126  magn=  0.0000
     atom 438 (R=0.045)  charge=  2.0111  magn=  0.0008
     atom 439 (R=0.045)  charge=  2.0123  magn= -0.0000
     atom 440 (R=0.045)  charge=  2.0132  magn= -0.0000
     atom 441 (R=0.045)  charge=  2.0108  magn=  0.0000
     atom 442 (R=0.045)  charge=  2.0112  magn= -0.0000
     atom 443 (R=0.045)  charge=  2.0137  magn= -0.0001
     atom 444 (R=0.045)  charge=  2.0112  magn=  0.0001
     atom 445 (R=0.045)  charge=  2.0138  magn= -0.0004
     atom 446 (R=0.045)  charge=  2.0132  magn= -0.0000
     atom 447 (R=0.045)  charge=  2.0108  magn=  0.0000
     atom 448 (R=0.045)  charge=  2.0126  magn= -0.0000
     atom 449 (R=0.045)  charge=  2.0136  magn= -0.0000
     atom 450 (R=0.045)  charge=  2.0113  magn=  0.0000
     atom 451 (R=0.045)  charge=  2.0108  magn=  0.0000
     atom 452 (R=0.045)  charge=  2.0112  magn=  0.0001
     atom 453 (R=0.045)  charge=  2.0106  magn= -0.0000
     atom 454 (R=0.045)  charge=  2.0127  magn=  0.0000
     atom 455 (R=0.045)  charge=  2.0135  magn= -0.0000
     atom 456 (R=0.045)  charge=  2.0133  magn=  0.0010
     atom 457 (R=0.045)  charge=  2.0126  magn= -0.0001
     atom 458 (R=0.045)  charge=  2.0136  magn=  0.0001
     atom 459 (R=0.045)  charge=  2.0123  magn= -0.0000
     atom 460 (R=0.045)  charge=  2.0135  magn=  0.0009
     atom 461 (R=0.045)  charge=  2.0123  magn= -0.0001
     atom 462 (R=0.045)  charge=  2.0132  magn=  0.0001
     atom 463 (R=0.045)  charge=  2.0126  magn=  0.0000
     atom 464 (R=0.045)  charge=  2.0112  magn=  0.0002
     atom 465 (R=0.045)  charge=  2.0123  magn=  0.0000
     atom 466 (R=0.045)  charge=  2.0135  magn=  0.0001
     atom 467 (R=0.045)  charge=  2.0126  magn= -0.0000
     atom 468 (R=0.045)  charge=  2.0135  magn=  0.0000
     atom 469 (R=0.045)  charge=  2.0127  magn=  0.0000
     atom 470 (R=0.045)  charge=  2.0112  magn=  0.0001
     atom 471 (R=0.045)  charge=  2.0123  magn=  0.0000
     atom 472 (R=0.045)  charge=  2.0132  magn= -0.0000
     atom 473 (R=0.045)  charge=  2.0108  magn= -0.0000
     atom 474 (R=0.045)  charge=  2.0113  magn=  0.0000
     atom 475 (R=0.045)  charge=  2.0135  magn= -0.0000
     atom 476 (R=0.045)  charge=  2.0112  magn=  0.0000
     atom 477 (R=0.045)  charge=  2.0136  magn= -0.0000
     atom 478 (R=0.045)  charge=  2.0132  magn=  0.0000
     atom 479 (R=0.045)  charge=  2.0108  magn= -0.0000
     atom 480 (R=0.045)  charge=  2.0127  magn=  0.0001
     atom 481 (R=0.045)  charge=  2.0135  magn= -0.0000
     atom 482 (R=0.045)  charge=  2.0113  magn=  0.0013
     atom 483 (R=0.045)  charge=  2.0111  magn=  0.0029
     atom 484 (R=0.045)  charge=  2.0112  magn=  0.0001
     atom 485 (R=0.045)  charge=  2.0107  magn= -0.0000
     atom 486 (R=0.045)  charge=  2.0127  magn=  0.0008
     atom 487 (R=0.045)  charge=  2.0131  magn= -0.0008
     atom 488 (R=0.045)  charge=  2.0132  magn= -0.0000
     atom 489 (R=0.045)  charge=  2.0126  magn=  0.0000
     atom 490 (R=0.045)  charge=  2.0135  magn= -0.0000
     atom 491 (R=0.045)  charge=  2.0124  magn=  0.0002
     atom 492 (R=0.045)  charge=  2.0135  magn=  0.0000
     atom 493 (R=0.045)  charge=  2.0123  magn= -0.0000
     atom 494 (R=0.045)  charge=  2.0129  magn=  0.0000
     atom 495 (R=0.045)  charge=  2.0122  magn=  0.0000
     atom 496 (R=0.045)  charge=  2.0112  magn=  0.0000
     atom 497 (R=0.045)  charge=  2.0123  magn=  0.0000
     atom 498 (R=0.045)  charge=  2.0135  magn= -0.0000
     atom 499 (R=0.045)  charge=  2.0126  magn=  0.0000
     atom 500 (R=0.045)  charge=  2.0135  magn=  0.0000
     atom 501 (R=0.045)  charge=  2.0126  magn=  0.0000
     atom 502 (R=0.045)  charge=  2.0111  magn=  0.0000
     atom 503 (R=0.045)  charge=  2.0123  magn=  0.0000
     atom 504 (R=0.045)  charge=  2.0132  magn=  0.0001
     atom 505 (R=0.045)  charge=  2.0108  magn= -0.0000
     atom 506 (R=0.045)  charge=  2.0113  magn=  0.0003
     atom 507 (R=0.045)  charge=  2.0134  magn= -0.0001
     atom 508 (R=0.045)  charge=  2.0113  magn=  0.0001
     atom 509 (R=0.045)  charge=  2.0135  magn= -0.0001
     atom 510 (R=0.045)  charge=  2.0132  magn=  0.0001
     atom 511 (R=0.045)  charge=  2.0107  magn= -0.0001

     total cpu time spent up to now is       30.0 secs

     End of self-consistent calculation

 ------ SPIN UP ------------


          k = 0.0000 0.0000 0.0000 ( 58461 PWs)   bands (ev):

    -8.1978  -7.6408  -7.6408  -7.6363  -7.6201  -7.6201  -7.5450  -7.0803
    -7.0698  -7.0698  -7.0678  -7.0648  -7.0648  -7.0499  -7.0498  -7.0340
    -7.0005  -7.0004  -6.8843  -6.5189  -6.4836  -6.4719  -6.4718  -6.4588
    -6.4450  -6.4450  -6.3491  -5.9435  -5.9119  -5.9119  -5.9045  -5.9045
    -5.8764  -5.4875  -5.3871  -5.3820  -5.3819  -5.3817  -5.3737  -5.3737
    -5.3716  -5.3716  -5.3712  -5.3619  -5.3615  -5.3614  -5.3540  -5.3540
    -5.3460  -5.3353  -5.3353  -5.3180  -5.3123  -5.3123  -5.2643  -5.2643
    -5.1753  -4.9364  -4.8246  -4.8246  -4.8203  -4.8190  -4.8188  -4.8188
    -4.8176  -4.8176  -4.8151  -4.8150  -4.8066  -4.8063  -4.8063  -4.7998
    -4.7914  -4.7913  -4.7757  -4.7508  -4.7508  -4.7218  -4.6696  -4.6695
    -4.4266  -3.8219  -3.7281  -3.7281  -3.7248  -3.7248  -3.7246  -3.7185
    -3.7185  -3.7133  -3.7035  -3.7035  -3.6593  -3.4130  -3.2661  -3.2661
    -3.2619  -3.2616  -3.2615  -3.2606  -3.2538  -3.2537  -3.2517  -3.2517
    -3.2434  -3.2434  -3.2396  -3.2388  -3.2388  -3.2381  -3.2144  -3.1897
    -3.1897  -3.1716  -3.1601  -3.1601  -3.1534  -3.1411  -3.1409  -3.1408
    -3.1113  -3.1112  -2.9984  -2.7394  -2.6565  -2.6551  -2.6550  -2.6549
    -2.6544  -2.6543  -2.6392  -2.6392  -2.6377  -2.6377  -2.6357  -2.6342
    -2.6304  -2.6303  -2.6290  -2.6274  -2.6274  -2.6068  -2.5740  -2.5739
    -2.5454  -2.5453  -2.4947  -2.4337  -2.3946  -2.3946  -2.3700  -2.2765
    -2.1797  -2.1797  -2.1754  -2.1754  -2.1747  -2.1704  -2.1671  -2.1665
    -2.1664  -2.1627  -2.1627  -2.1580  -2.1577  -2.1577  -2.1522  -2.1425
[...]
     0.8297   0.8299   0.8300   0.8301   0.8469   0.8469   0.8537   0.8537
     0.8538   0.8542   0.8577   0.8577   0.8636   0.8636   0.8657   0.8732
     0.8970   0.8975   0.8976   0.9000   0.9069   0.9070   0.9077   0.9090
     0.9091   0.9100   0.9105   0.9105   0.9170   0.9170   0.9316   0.9316
     0.9427   0.9468   0.9468   0.9498   0.9554   0.9566   0.9566   0.9750
     0.9750   1.0233   1.0603   1.0603   1.1389   1.2578   1.3138   1.3138
     1.3160   1.3223   1.3224   1.3343   1.3352   1.3352   1.3636   1.3636
     1.4362   1.5216   1.5585   1.5586   1.5607   1.5607   1.5653   1.5695
     1.5869   1.5869   1.6199   1.6199   1.6912   1.7088   1.7193   1.7194
     1.7216   1.7216   1.7231   1.7231   1.7232   1.7329   1.7329   1.7353
     1.7401   1.7401   1.7402   1.7442   1.7443   1.7616   1.7867   1.7867
     1.8030   1.8928   1.9266   1.9266   2.2034   2.4517   2.4919   2.4919
     2.4977   2.5011   2.5029   2.5029   2.5048   2.5049   2.5051   2.5062
     2.5062   2.5106   2.5107   2.5165   2.5165   2.5205   2.5243   2.5274
     2.5275   2.5822   2.5938   2.5938   2.6779   2.8503   2.8543   2.8569
     2.8569   2.8579   2.8579   2.8625   2.8673   2.8673   2.8756   2.8756
     2.8761   2.8797   2.9011   2.9011   2.9121   2.9125   2.9126   2.9380
     2.9380   2.9388   3.0611   3.0611   3.6285   3.9664   3.9664   3.9733
     3.9750   3.9750   3.9753   3.9762   3.9831   3.9832   3.9946   3.9954
     3.9955   4.1184   4.1530   4.1530   4.1559   4.1560   4.1561   4.1589
     4.1589   4.1592   4.1600   4.1600   4.1603   4.1604   4.1612   4.1622
     4.1622   4.1768   4.2134   4.2135   4.2180   4.2255   4.2267   4.2268
     4.2394   4.2506   4.2515   4.2516   4.2542   4.2542   4.2550   4.2667
     4.2668   4.2747   4.2769   4.2802   4.2802   4.2829   4.2899   4.2899
     4.2990   4.2991   4.3001   4.3066   4.3153   4.3154   4.3605   4.3606
     4.3978   4.3979   4.3995   4.4000   4.4032   4.4032   4.4049   4.4049
     4.4106   4.4147   4.4147   4.4148   4.4176   4.4394   4.4394   4.4470
     4.4470   4.4484   4.4543   4.4801   4.4801   4.5035   4.5330   4.5331
     4.5366   4.5898   4.5898   4.5984   4.5984   4.6069   4.6085   4.6165
     4.6165   4.6481   4.6645   4.6646   4.6750   4.7139   4.7373   4.7373
     4.8240   4.8241   4.9656   4.9656   4.9703   4.9778   4.9778   4.9818
     4.9819   4.9973   4.9973   5.0594   5.0806   5.0806   5.6242   5.6795
     5.6795   5.6877   5.6877   5.6884   5.6908   5.7000   5.7001   5.7215
     5.7215   5.7265   5.9054   5.9485   5.9485   5.9500   5.9512   5.9541
     5.9542   5.9606   5.9606   5.9634   5.9687   5.9687   5.9711   5.9796
     5.9797   5.9865   5.9865   5.9903   6.0077   6.0077   6.0131   6.0370
     6.0423   6.0423   6.0614   6.2731   6.2731   6.2917   6.2939   6.2939
     6.2946   6.2950   6.2969   6.2969   6.2997   6.2998   6.3019   6.3057
     6.3093   6.3094   6.3204   6.3204   6.3298   6.3298   6.3313   6.3453
     6.3762   6.3762   6.3836   6.5207   6.5307   6.5307   6.5447   6.5448
     6.5464   6.5464   6.5478   6.5493   6.5508   6.5508   6.5517   6.5534
     6.5534   6.5543   6.5575   6.5606   6.5607   6.5762   6.5763   6.6085
     6.6086   6.6087   6.6103   6.6827   6.6882   6.6901   6.6901   6.6950
     6.6960   6.6960   6.7073   6.7492   6.7545   6.7545   6.7555   6.7585
     6.7585   6.7645   6.7661   6.7661   6.7676   6.7726   6.7726   6.7824
     6.7824   6.8037   6.8037   6.8043   6.8272   6.8272   6.8359   6.8569
     6.8874   6.8874   6.9392   6.9552   6.9552   6.9619   6.9651   6.9666
     6.9666   6.9708   6.9761   6.9762   6.9784   6.9801   6.9801   6.9895
     6.9935   6.9936   6.9970   6.9970   6.9978   7.0031   7.0058   7.0058
     7.0239   7.0290   7.0290   7.0404   7.0404   7.1094   7.1380   7.1381
     7.3240   7.3241   7.3324   7.3344   7.3344   7.3382   7.3387   7.3387
     7.3419   7.3419   7.3423   7.3441   7.3496   7.3496   7.3557   7.3597
     7.3664   7.3674   7.3674   7.3894   7.3894   7.4151   7.4151   7.4176
     7.5540   7.5541   7.5626   7.5627   7.5627   7.5656   7.5906   7.5906
     7.6029   7.6302   7.6302   7.6337   7.7102   7.7502   7.7502   7.7651
     7.7705   7.7709   7.7710   7.7738   7.7741   7.7741   7.7789   7.7789
     7.7837   7.7891   7.7891   7.7976   7.7980   7.7981   7.7981   7.8008
     7.8008   7.8014   7.8030   7.8031   7.8056   7.8056   7.8086   7.8090
     7.8090   7.8106   7.8123   7.8124   7.8146   7.8146   7.8156   7.8181
     7.8255   7.8256   7.8256   7.8364   7.8374   7.8375   7.8523   7.8607
     7.8607   7.8838   7.8838   7.8966   7.9450   7.9459   7.9459   7.9516
     7.9517   7.9553   7.9866   7.9866   7.9909   8.1431   8.1461   8.1462
     8.3810   8.3810   8.3942   8.3953   8.3998   8.3998   8.4031   8.4035
     8.4036   8.4066   8.4089   8.4090   8.4093   8.4163   8.4168   8.4168
     8.4239   8.4240   8.4280   8.4439   8.4439   8.4519   8.4702   8.4703
     8.4823   8.5872   8.5873   8.5927   8.5947   8.5947   8.5972   8.6017
     8.6018   8.6031   8.6087   8.6088   8.6090   8.6122   8.6122   8.6184
     8.6185   8.6246   8.6421   8.6421   8.6451   8.6568   8.6763   8.6763
     8.6814   8.6894   8.7017   8.7017   8.7039   8.7142   8.7142   8.7176
     8.7239   8.7239   8.7389   8.7390   8.7431   8.7481   8.7482   8.7502
     8.7557   8.7585   8.7585   8.7786   8.7788   8.7788   8.7963   8.7964
     8.8214   8.8388   8.8388   9.0593   9.0725   9.0725   9.1652   9.1690
     9.1691   9.1762   9.1763   9.1806   9.1838   9.1867   9.1867   9.1867
     9.2384   9.2516   9.2516   9.2876   9.2876   9.2902   9.2902   9.2986
     9.3293   9.3293   9.3527   9.4644   9.4841   9.4842   9.7344   9.7344
     9.7479   9.7513   9.7526   9.7526   9.7547   9.7577   9.7662   9.7662
     9.7807   9.7839   9.7840   9.7891   9.7895   9.7896   9.7971   9.7971
     9.8101   9.8112   9.8112   9.8114   9.8901   9.8901   9.9041  10.0266
    10.0267  10.0340  10.0341  10.0370  10.0370  10.0476  10.0476  10.0594
    10.0611  10.0613  10.0613  10.0765  10.0778  10.0778  10.0825  10.0826
    10.0836  10.0851  10.0873  10.0873  10.0881  10.0882  10.0899  10.0899
    10.0928  10.0969  10.0988  10.0988  10.1168  10.1169  10.1169  10.1870
    10.1870  10.2008  10.2440  10.2441  10.2451  10.2458  10.2462  10.2462
    10.2469  10.2472  10.2472  10.2501  10.2501  10.2531  10.3024  10.3518
    10.3518  10.3567  10.3572  10.3595  10.3595  10.3656  10.3666  10.3667
    10.3686  10.3687  10.3693  10.3726  10.3742  10.3743  10.3776  10.3776
    10.3779  10.3806  10.3807  10.3854  10.3860  10.3860  10.3865  10.3894
    10.3894  10.3940  10.3940  10.3943  10.4047  10.4047  10.4177  10.4196
    10.4196  10.4417  10.4488  10.4690  10.4700  10.4700  10.4834  10.4835
    10.5035  10.5036  10.5098  10.5309  10.5377  10.5378  10.5829  10.5829
    10.6944  10.7464  10.7465  11.2037  11.3676  11.3693  11.3693  11.5222
    11.5223  11.5347  11.5348  11.5363  11.5364  11.5368  11.5368  11.5423
    11.5456  11.5457  11.5514  11.5514  11.5578  11.5589  11.5590  11.5702
    11.5770  11.5771  11.5997  11.5998  11.6106  11.6523  11.6523  11.6598
    11.9218  11.9219  11.9359  11.9598  11.9599  12.0972  12.3657  12.3812
    12.3812  12.5045  12.5203  12.5204  12.5204  12.5482  12.5483  12.5610
    12.5954  12.5955  13.2175  13.2500  13.2501  14.1449  15.1971  15.1972

 ------ SPIN DOWN ----------


          k = 0.0000 0.0000 0.0000 ( 58461 PWs)   bands (ev):

    -8.1967  -7.6404  -7.6403  -7.6357  -7.6188  -7.6187  -7.5411  -7.0790
    -7.0694  -7.0694  -7.0670  -7.0644  -7.0643  -7.0489  -7.0489  -7.0328
    -6.9964  -6.9964  -6.8759  -6.5174  -6.4830  -6.4701  -6.4701  -6.4569
    -6.4413  -6.4413  -6.3388  -5.9422  -5.9106  -5.9105  -5.9024  -5.9023
    -5.8731  -5.4831  -5.3869  -5.3816  -5.3816  -5.3813  -5.3731  -5.3730
    -5.3713  -5.3713  -5.3708  -5.3616  -5.3610  -5.3610  -5.3527  -5.3527
    -5.3431  -5.3336  -5.3336  -5.3170  -5.3097  -5.3097  -5.2559  -5.2559
    -5.1681  -4.9340  -4.8244  -4.8243  -4.8194  -4.8186  -4.8182  -4.8182
    -4.8171  -4.8171  -4.8139  -4.8139  -4.8049  -4.8049  -4.8035  -4.7990
    -4.7892  -4.7892  -4.7734  -4.7456  -4.7456  -4.7181  -4.6530  -4.6530
    -4.4006  -3.8184  -3.7267  -3.7267  -3.7234  -3.7234  -3.7227  -3.7167
    -3.7167  -3.7124  -3.6990  -3.6990  -3.6537  -3.4079  -3.2658  -3.2658
    -3.2615  -3.2612  -3.2612  -3.2602  -3.2525  -3.2524  -3.2509  -3.2509
    -3.2419  -3.2419  -3.2378  -3.2360  -3.2360  -3.2356  -3.2117  -3.1862
    -3.1862  -3.1687  -3.1575  -3.1575  -3.1510  -3.1398  -3.1390  -3.1389
    -3.0999  -3.0999  -2.9862  -2.7331  -2.6562  -2.6547  -2.6547  -2.6542
    -2.6537  -2.6536  -2.6381  -2.6380  -2.6372  -2.6371  -2.6351  -2.6337
    -2.6289  -2.6288  -2.6258  -2.6257  -2.6257  -2.6055  -2.5700  -2.5699
    -2.5372  -2.5371  -2.4903  -2.4324  -2.3909  -2.3908  -2.3645  -2.2729
    -2.1789  -2.1789  -2.1745  -2.1745  -2.1725  -2.1682  -2.1664  -2.1647
    -2.1647  -2.1602  -2.1602  -2.1571  -2.1564  -2.1564  -2.1473  -2.1399
    -2.1399  -2.1158  -2.1078  -2.1078  -2.0186  -2.0185  -1.8213  -1.5330
    -1.4415  -1.4403  -1.4403  -1.4376  -1.4305  -1.4304  -1.4286  -1.4283
    -1.4283  -1.4248  -1.4248  -1.4247  -1.4039  -1.4039  -1.3934  -1.3933
    -1.3908  -1.3894  -1.3893  -1.3745  -1.3500  -1.3499  -1.3406  -1.2892
    -1.2482  -1.2444  -1.2444  -1.2406  -1.2405  -1.2369  -1.2334  -1.2300
    -1.2300  -1.2158  -1.2151  -1.2151  -1.1871  -1.1871  -1.1790  -1.1790
    -1.1739  -1.1340  -1.1246  -1.1246  -0.9200  -0.9199  -0.3183  -0.0688
    -0.0685  -0.0685  -0.0516   0.2419   0.3023   0.3023   0.3071   0.3097
     0.3097   0.3197   0.3198   0.3198   0.3486   0.3486   0.4192   0.5000
     0.5097   0.5098   0.5156   0.5157   0.5435   0.7931   0.8296   0.8300
     0.8300   0.8303   0.8303   0.8307   0.8477   0.8477   0.8553   0.8555
     0.8556   0.8559   0.8588   0.8588   0.8650   0.8651   0.8666   0.8747
     0.8974   0.8979   0.8979   0.9005   0.9075   0.9076   0.9083   0.9102
     0.9102   0.9107   0.9112   0.9113   0.9189   0.9189   0.9360   0.9360
     0.9484   0.9489   0.9489   0.9527   0.9609   0.9631   0.9631   0.9828
     0.9828   1.0266   1.0726   1.0726   1.1476   1.2629   1.3154   1.3154
     1.3196   1.3244   1.3244   1.3363   1.3368   1.3369   1.3761   1.3762
     1.4433   1.5261   1.5603   1.5604   1.5627   1.5627   1.5671   1.5741
     1.5901   1.5901   1.6361   1.6361   1.6965   1.7106   1.7199   1.7200
     1.7222   1.7222   1.7240   1.7251   1.7251   1.7337   1.7337   1.7372
     1.7419   1.7425   1.7425   1.7466   1.7466   1.7638   1.7952   1.7952
     1.8222   1.9013   1.9504   1.9504   2.2299   2.4559   2.4932   2.4933
     2.4984   2.5017   2.5051   2.5052   2.5056   2.5057   2.5076   2.5081
     2.5081   2.5130   2.5131   2.5192   2.5192   2.5269   2.5309   2.5329
     2.5330   2.5869   2.6054   2.6055   2.6888   2.8544   2.8574   2.8576
     2.8576   2.8589   2.8589   2.8634   2.8684   2.8685   2.8768   2.8769
     2.8814   2.8838   2.9029   2.9029   2.9156   2.9156   2.9167   2.9424
     2.9424   2.9458   3.1119   3.1120   3.6871   3.9675   3.9675   3.9746
     3.9761   3.9761   3.9764   3.9771   3.9848   3.9848   3.9958   3.9978
     3.9978   4.1251   4.1538   4.1538   4.1564   4.1565   4.1565   4.1594
     4.1595   4.1597   4.1610   4.1610   4.1616   4.1617   4.1621   4.1632
     4.1633   4.1806   4.2167   4.2167   4.2199   4.2274   4.2281   4.2282
     4.2421   4.2508   4.2523   4.2523   4.2550   4.2551   4.2558   4.2686
     4.2687   4.2788   4.2817   4.2821   4.2821   4.2917   4.2918   4.2935
     4.3029   4.3030   4.3031   4.3111   4.3179   4.3180   4.3737   4.3738
     4.3984   4.3984   4.4005   4.4022   4.4038   4.4038   4.4060   4.4060
     4.4118   4.4159   4.4169   4.4169   4.4218   4.4420   4.4420   4.4502
     4.4506   4.4506   4.4556   4.4853   4.4853   4.5097   4.5408   4.5409
     4.5441   4.5925   4.5926   4.6003   4.6003   4.6106   4.6144   4.6219
     4.6219   4.6571   4.6707   4.6708   4.6781   4.7222   4.7410   4.7411
     4.8641   4.8641   4.9675   4.9675   4.9715   4.9798   4.9798   4.9837
     4.9846   5.0024   5.0024   5.0647   5.1061   5.1061   5.6461   5.6821
     5.6821   5.6888   5.6888   5.6903   5.6919   5.7041   5.7041   5.7257
     5.7257   5.7298   5.9337   5.9488   5.9488   5.9510   5.9516   5.9551
     5.9551   5.9618   5.9619   5.9641   5.9697   5.9698   5.9722   5.9809
     5.9810   5.9886   5.9886   5.9920   6.0113   6.0113   6.0168   6.0406
     6.0474   6.0474   6.1036   6.2747   6.2747   6.2934   6.2950   6.2950
     6.2961   6.2977   6.2979   6.2979   6.3008   6.3009   6.3031   6.3075
     6.3122   6.3122   6.3239   6.3239   6.3338   6.3338   6.3362   6.3572
     6.3828   6.3828   6.3894   6.5241   6.5329   6.5330   6.5457   6.5458
     6.5474   6.5474   6.5488   6.5501   6.5521   6.5521   6.5543   6.5560
     6.5560   6.5574   6.5601   6.5644   6.5645   6.5811   6.5812   6.6114
     6.6140   6.6141   6.6179   6.6848   6.6893   6.6915   6.6915   6.6969
     6.6973   6.6973   6.7103   6.7494   6.7549   6.7549   6.7560   6.7598
     6.7598   6.7652   6.7670   6.7670   6.7710   6.7742   6.7742   6.7851
     6.7851   6.8058   6.8058   6.8073   6.8340   6.8341   6.8451   6.8680
     6.8961   6.8961   6.9450   6.9564   6.9564   6.9624   6.9658   6.9676
     6.9676   6.9737   6.9772   6.9772   6.9804   6.9826   6.9827   6.9955
     6.9956   6.9964   6.9989   6.9996   6.9997   7.0059   7.0097   7.0097
     7.0290   7.0357   7.0357   7.0561   7.0561   7.1168   7.1590   7.1591
     7.3254   7.3254   7.3330   7.3350   7.3350   7.3390   7.3397   7.3397
     7.3428   7.3428   7.3434   7.3462   7.3520   7.3520   7.3583   7.3618
     7.3679   7.3698   7.3698   7.3948   7.3949   7.4200   7.4219   7.4219
     7.5569   7.5570   7.5642   7.5642   7.5644   7.5679   7.5947   7.5947
     7.6077   7.6362   7.6362   7.6369   7.7341   7.7521   7.7521   7.7658
     7.7714   7.7714   7.7714   7.7746   7.7749   7.7749   7.7801   7.7801
     7.7853   7.7912   7.7912   7.7982   7.7987   7.7990   7.7990   7.8024
     7.8024   7.8030   7.8047   7.8048   7.8064   7.8065   7.8098   7.8098
     7.8110   7.8141   7.8146   7.8147   7.8157   7.8157   7.8176   7.8191
     7.8280   7.8280   7.8285   7.8400   7.8414   7.8415   7.8598   7.8698
     7.8698   7.8870   7.8870   7.9024   7.9484   7.9539   7.9540   7.9560
     7.9561   7.9575   7.9970   7.9971   8.0005   8.1512   8.1630   8.1630
     8.3826   8.3826   8.3966   8.4008   8.4008   8.4037   8.4048   8.4049
     8.4075   8.4081   8.4100   8.4101   8.4176   8.4192   8.4192   8.4260
     8.4260   8.4300   8.4475   8.4476   8.4565   8.4569   8.4754   8.4754
     8.4929   8.5892   8.5892   8.5947   8.5958   8.5958   8.5983   8.6036
     8.6036   8.6042   8.6102   8.6110   8.6110   8.6135   8.6135   8.6205
     8.6205   8.6283   8.6462   8.6462   8.6484   8.6584   8.6802   8.6803
     8.6859   8.6916   8.7026   8.7027   8.7044   8.7166   8.7167   8.7214
     8.7289   8.7289   8.7404   8.7405   8.7458   8.7531   8.7531   8.7536
     8.7622   8.7644   8.7644   8.7813   8.7814   8.7836   8.8071   8.8071
     8.8466   8.8618   8.8618   9.0648   9.0890   9.0890   9.1726   9.1726
     9.1774   9.1775   9.1823   9.1864   9.1906   9.1906   9.1911   9.1985
     9.2429   9.2617   9.2617   9.2889   9.2889   9.2913   9.2913   9.3015
     9.3385   9.3385   9.3619   9.4779   9.5094   9.5094   9.7373   9.7373
     9.7485   9.7521   9.7531   9.7532   9.7557   9.7589   9.7681   9.7682
     9.7853   9.7853   9.7910   9.7911   9.7912   9.7991   9.8026   9.8026
     9.8199   9.8199   9.8213   9.8647   9.9014   9.9014   9.9210  10.0288
    10.0288  10.0353  10.0353  10.0378  10.0386  10.0502  10.0502  10.0613
    10.0621  10.0622  10.0623  10.0785  10.0794  10.0794  10.0838  10.0838
    10.0853  10.0864  10.0892  10.0892  10.0903  10.0904  10.0915  10.0915
    10.0983  10.0992  10.1019  10.1020  10.1263  10.1263  10.1269  10.1954
    10.1955  10.2091  10.2448  10.2449  10.2454  10.2463  10.2465  10.2465
    10.2475  10.2478  10.2478  10.2513  10.2514  10.2550  10.3261  10.3534
    10.3534  10.3569  10.3576  10.3599  10.3599  10.3659  10.3672  10.3673
    10.3698  10.3698  10.3704  10.3733  10.3749  10.3750  10.3783  10.3783
    10.3787  10.3818  10.3818  10.3865  10.3873  10.3873  10.3879  10.3905
    10.3905  10.3960  10.3960  10.3961  10.4073  10.4073  10.4209  10.4240
    10.4240  10.4518  10.4564  10.4720  10.4720  10.4723  10.4897  10.4898
    10.5086  10.5087  10.5130  10.5429  10.5608  10.5608  10.5968  10.5969
    10.7360  10.7914  10.7915  11.2949  11.3999  11.4000  11.5239  11.5240
    11.5355  11.5356  11.5365  11.5374  11.5381  11.5381  11.5432  11.5436
    11.5485  11.5485  11.5534  11.5534  11.5615  11.5615  11.5732  11.5826
    11.5827  11.6064  11.6065  11.6095  11.6206  11.6711  11.6711  11.6840
    11.9303  11.9304  11.9457  11.9626  11.9627  12.2032  12.4119  12.4119
    12.4549  12.5049  12.5212  12.5218  12.5218  12.5533  12.5533  12.5678
    12.6038  12.6039  13.2593  13.2692  13.2694  14.7486  16.7157  16.7159

     highest occupied, lowest unoccupied level (ev):    15.1972   16.7157

!    total energy              =   -5824.88826948 Ry
     estimated scf accuracy    <       0.00000058 Ry

     The total energy is the sum of the following terms:
     one-electron contribution =    2026.62472637 Ry
     hartree contribution      =     500.02109948 Ry
     xc contribution           =   -1820.37554009 Ry
     ewald contribution        =   -6531.15855524 Ry

     total magnetization       =     2.00 Bohr mag/cell
     absolute magnetization    =     2.21 Bohr mag/cell

     convergence has been achieved in  11 iterations

     Writing all to output data dir ./pwscf.save/ :
     XML data file, charge density, pseudopotentials, collected wavefunctions
 
     init_run     :      3.70s CPU      4.72s WALL (       1 calls)
     electrons    :     24.44s CPU     25.32s WALL (       1 calls)

     Called by init_run:
     wfcinit      :      0.48s CPU      0.93s WALL (       1 calls)
     potinit      :      0.11s CPU      0.22s WALL (       1 calls)
     hinit0       :      3.02s CPU      3.08s WALL (       1 calls)

     Called by electrons:
     c_bands      :     19.55s CPU     20.01s WALL (      11 calls)
     sum_band     :      4.35s CPU      4.42s WALL (      11 calls)
     v_of_rho     :      0.18s CPU      0.33s WALL (      12 calls)
     mix_rho      :      0.28s CPU      0.34s WALL (      11 calls)

     Called by c_bands:
     init_us_2    :      0.59s CPU      0.59s WALL (      46 calls)
     regterg      :     16.44s CPU     16.58s WALL (      22 calls)

     Called by *egterg:
     rdiaghg      :      7.07s CPU      7.13s WALL (     183 calls)
                                        7.13s GPU  (     183 calls)
     h_psi        :      6.30s CPU      6.58s WALL (     185 calls)
     g_psi        :      0.01s CPU      0.01s WALL (     161 calls)

     Called by h_psi:
     h_psi:calbec :      0.75s CPU      0.85s WALL (     185 calls)
     vloc_psi     :      4.59s CPU      4.77s WALL (     185 calls)
                                        4.76s GPU  (     185 calls)
     add_vuspsi   :      0.94s CPU      0.94s WALL (     185 calls)

     General routines
     calbec       :      0.75s CPU      0.85s WALL (     185 calls)
     fft          :      0.07s CPU      0.32s WALL (     155 calls)
                                        0.32s GPU  (     155 calls)
     ffts         :      0.01s CPU      0.01s WALL (      11 calls)
                                        0.01s GPU  (      11 calls)
     fftw         :      5.59s CPU      6.36s WALL (   16552 calls)
                                        6.15s GPU  (   16552 calls)
 
     Parallel routines
 
     PWSCF        :     29.18s CPU     50.42s WALL

 
   This run was terminated on:   4: 6:14  19Feb2026            

=------------------------------------------------------------------------------=
   JOB DONE.
=------------------------------------------------------------------------------=
