
     Program PWSCF v.7.5 starts on 12Feb2026 at  5:10:45 

     This program is part of the open-source Quantum ESPRESSO suite
     for quantum simulation of materials; please cite
         "P. Giannozzi et al., J. Phys.:Condens. Matter 21 395502 (2009);
         "P. Giannozzi et al., J. Phys.:Condens. Matter 29 465901 (2017);
         "P. Giannozzi et al., J. Chem. Phys. 152 154105 (2020);
          URL http://www.quantum-espresso.org", 
     in publications or presentations arising from this work. More details at
     http://www.quantum-espresso.org/quote

     Parallel version (MPI & OpenMP), running on       8 processor cores
     Number of MPI processes:                 8
     Threads/MPI process:                     1

     MPI processes distributed on     1 nodes
     1141834 MiB available memory on the printing compute node when the environment starts
 
     Reading input from pw.in

     Current dimensions of program PWSCF are:
     Max number of different atomic species (ntypx) = 10
     Max number of k-points (npk) =  40000
     Max angular momentum in pseudopotentials (lmaxx) =  4

     IMPORTANT: XC functional enforced from input :
     Exchange-correlation= PBE
                           (   1   4   3   4   0   0   0)
     Any further DFT definition will be discarded
     Please, verify this is what you really want


     gamma-point specific algorithms are used
     Message from routine setup:
     using ibrav=0 with symmetry is DISCOURAGED, use correct ibrav instead
 
     R & G space division:  proc/nbgrp/npool/nimage =       8
     Subspace diagonalization in iterative solution of the eigenvalue problem:
     a serial algorithm will be used

 
     Parallelization info
     --------------------
     sticks:   dense  smooth     PW     G-vecs:    dense   smooth      PW
     Min        1444    1444    359               117020   117020   14611
     Max        1446    1446    362               117026   117026   14622
     Sum       11561   11561   2885               936185   936185  116921
 
     Using Slab Decomposition
 


     bravais-lattice index     =            0
     lattice parameter (alat)  =      26.9626  a.u.
     unit-cell volume          =   19601.3464 (a.u.)^3
     number of atoms/cell      =          511
     number of atomic types    =            2
     number of electrons       =      2046.00
     number of Kohn-Sham states=         1023
     kinetic-energy cutoff     =      50.0000  Ry
     charge density cutoff     =     200.0000  Ry
     scf convergence threshold =      1.0E-06
     mixing beta               =       0.7000
     number of iterations used =            8  plain     mixing
     Exchange-correlation= PBE
                           (   1   4   3   4   0   0   0)

     GPU acceleration is ACTIVE.  8 visible GPUs per MPI rank
     GPU-aware MPI enabled


     celldm(1)=  26.962612  celldm(2)=   0.000000  celldm(3)=   0.000000
     celldm(4)=   0.000000  celldm(5)=   0.000000  celldm(6)=   0.000000

     crystal axes: (cart. coord. in units of alat)
               a(1) = (   1.000000   0.000000   0.000000 )  
               a(2) = (   0.000000   1.000000   0.000000 )  
               a(3) = (   0.000000   0.000000   1.000000 )  

     reciprocal axes: (cart. coord. in units 2 pi/alat)
               b(1) = (  1.000000  0.000000  0.000000 )  
               b(2) = (  0.000000  1.000000  0.000000 )  
               b(3) = (  0.000000  0.000000  1.000000 )  


     PseudoPot. # 1 for C  read from file:
     ./C_ONCV_PBE-1.2.upf
     MD5 check sum: 1a5f83a7b1f58d24996abe00ed223ac6
     Pseudo is Norm-conserving, Zval =  4.0
     Generated using ONCVPSP code by D. R. Hamann
     Using radial grid of  602 points,  4 beta functions with: 
                l(1) =   0
                l(2) =   0
                l(3) =   1
                l(4) =   1

     PseudoPot. # 2 for N  read from file:
     ./N_ONCV_PBE-1.2.upf
     MD5 check sum: c233fa8df51455e992258b7c3dee8a9f
     Pseudo is Norm-conserving, Zval =  5.0
     Generated using ONCVPSP code by D. R. Hamann
     Using radial grid of  602 points,  4 beta functions with: 
                l(1) =   0
                l(2) =   0
                l(3) =   1
                l(4) =   1

     atomic species   valence    mass     pseudopotential
     C                 4.00    12.01100     C ( 1.00)
     N                 5.00    14.00700     N ( 1.00)

      2 Sym. Ops. (no inversion) found ( 1 have fractional translation)



   Cartesian axes

     site n.     atom                  positions (alat units)
         1        C      tau(   1) = (   0.0000000   0.0000000   0.0000000  )
         2        C      tau(   2) = (   0.0625000   0.0625000   0.0625000  )
         3        C      tau(   3) = (   0.0000000   0.1250000   0.1250000  )
         4        C      tau(   4) = (   0.1250000   0.0000000   0.1250000  )
         5        C      tau(   5) = (   0.1875000   0.0625000   0.1875000  )
         6        C      tau(   6) = (   0.1250000   0.1250000   0.0000000  )
         7        C      tau(   7) = (   0.1875000   0.1875000   0.0625000  )
         8        C      tau(   8) = (   0.0000000   0.0000000   0.2500000  )
         9        C      tau(   9) = (   0.0625000   0.0625000   0.3125000  )
        10        C      tau(  10) = (   0.0000000   0.1250000   0.3750000  )
        11        C      tau(  11) = (   0.0625000   0.1875000   0.4375000  )
        12        C      tau(  12) = (   0.1250000   0.0000000   0.3750000  )
        13        C      tau(  13) = (   0.1875000   0.0625000   0.4375000  )
        14        N      tau(  14) = (   0.1250000   0.1250000   0.2500000  )
        15        C      tau(  15) = (   0.1875000   0.1875000   0.3125000  )
        16        C      tau(  16) = (   0.0000000   0.0000000   0.5000000  )
        17        C      tau(  17) = (   0.0625000   0.0625000   0.5625000  )
        18        C      tau(  18) = (   0.0000000   0.1250000   0.6250000  )
        19        C      tau(  19) = (   0.0625000   0.1875000   0.6875000  )
        20        C      tau(  20) = (   0.1250000   0.0000000   0.6250000  )
        21        C      tau(  21) = (   0.1875000   0.0625000   0.6875000  )
        22        C      tau(  22) = (   0.1250000   0.1250000   0.5000000  )
        23        C      tau(  23) = (   0.1875000   0.1875000   0.5625000  )
        24        C      tau(  24) = (   0.0000000   0.0000000   0.7500000  )
        25        C      tau(  25) = (   0.0625000   0.0625000   0.8125000  )
        26        C      tau(  26) = (   0.0000000   0.1250000   0.8750000  )
        27        C      tau(  27) = (   0.0625000   0.1875000   0.9375000  )
        28        C      tau(  28) = (   0.1250000   0.0000000   0.8750000  )
        29        C      tau(  29) = (   0.1875000   0.0625000   0.9375000  )
        30        C      tau(  30) = (   0.1250000   0.1250000   0.7500000  )
        31        C      tau(  31) = (   0.1875000   0.1875000   0.8125000  )
        32        C      tau(  32) = (   0.0000000   0.2500000   0.0000000  )
        33        C      tau(  33) = (   0.0625000   0.3125000   0.0625000  )
        34        C      tau(  34) = (   0.0000000   0.3750000   0.1250000  )
        35        C      tau(  35) = (   0.0625000   0.4375000   0.1875000  )
        36        C      tau(  36) = (   0.1250000   0.2500000   0.1250000  )
        37        C      tau(  37) = (   0.1875000   0.3125000   0.1875000  )
        38        C      tau(  38) = (   0.1250000   0.3750000   0.0000000  )
        39        C      tau(  39) = (   0.1875000   0.4375000   0.0625000  )
        40        C      tau(  40) = (   0.0000000   0.2500000   0.2500000  )
        41        C      tau(  41) = (   0.0625000   0.3125000   0.3125000  )
        42        C      tau(  42) = (   0.0000000   0.3750000   0.3750000  )
        43        C      tau(  43) = (   0.0625000   0.4375000   0.4375000  )
        44        C      tau(  44) = (   0.1250000   0.2500000   0.3750000  )
        45        C      tau(  45) = (   0.1875000   0.3125000   0.4375000  )
        46        C      tau(  46) = (   0.1250000   0.3750000   0.2500000  )
        47        C      tau(  47) = (   0.1875000   0.4375000   0.3125000  )
        48        C      tau(  48) = (   0.0000000   0.2500000   0.5000000  )
        49        C      tau(  49) = (   0.0625000   0.3125000   0.5625000  )
        50        C      tau(  50) = (   0.0000000   0.3750000   0.6250000  )
        51        C      tau(  51) = (   0.0625000   0.4375000   0.6875000  )
        52        C      tau(  52) = (   0.1250000   0.2500000   0.6250000  )
        53        C      tau(  53) = (   0.1875000   0.3125000   0.6875000  )
        54        C      tau(  54) = (   0.1250000   0.3750000   0.5000000  )
        55        C      tau(  55) = (   0.1875000   0.4375000   0.5625000  )
        56        C      tau(  56) = (   0.0000000   0.2500000   0.7500000  )
        57        C      tau(  57) = (   0.0625000   0.3125000   0.8125000  )
        58        C      tau(  58) = (   0.0000000   0.3750000   0.8750000  )
        59        C      tau(  59) = (   0.0625000   0.4375000   0.9375000  )
        60        C      tau(  60) = (   0.1250000   0.2500000   0.8750000  )
        61        C      tau(  61) = (   0.1875000   0.3125000   0.9375000  )
        62        C      tau(  62) = (   0.1250000   0.3750000   0.7500000  )
        63        C      tau(  63) = (   0.1875000   0.4375000   0.8125000  )
        64        C      tau(  64) = (   0.0000000   0.5000000   0.0000000  )
        65        C      tau(  65) = (   0.0625000   0.5625000   0.0625000  )
        66        C      tau(  66) = (   0.0000000   0.6250000   0.1250000  )
        67        C      tau(  67) = (   0.0625000   0.6875000   0.1875000  )
        68        C      tau(  68) = (   0.1250000   0.5000000   0.1250000  )
        69        C      tau(  69) = (   0.1875000   0.5625000   0.1875000  )
        70        C      tau(  70) = (   0.1250000   0.6250000   0.0000000  )
        71        C      tau(  71) = (   0.1875000   0.6875000   0.0625000  )
        72        C      tau(  72) = (   0.0000000   0.5000000   0.2500000  )
        73        C      tau(  73) = (   0.0625000   0.5625000   0.3125000  )
        74        C      tau(  74) = (   0.0000000   0.6250000   0.3750000  )
        75        C      tau(  75) = (   0.0625000   0.6875000   0.4375000  )
        76        C      tau(  76) = (   0.1250000   0.5000000   0.3750000  )
        77        C      tau(  77) = (   0.1875000   0.5625000   0.4375000  )
        78        C      tau(  78) = (   0.1250000   0.6250000   0.2500000  )
        79        C      tau(  79) = (   0.1875000   0.6875000   0.3125000  )
        80        C      tau(  80) = (   0.0000000   0.5000000   0.5000000  )
        81        C      tau(  81) = (   0.0625000   0.5625000   0.5625000  )
        82        C      tau(  82) = (   0.0000000   0.6250000   0.6250000  )
        83        C      tau(  83) = (   0.0625000   0.6875000   0.6875000  )
        84        C      tau(  84) = (   0.1250000   0.5000000   0.6250000  )
        85        C      tau(  85) = (   0.1875000   0.5625000   0.6875000  )
        86        C      tau(  86) = (   0.1250000   0.6250000   0.5000000  )
        87        C      tau(  87) = (   0.1875000   0.6875000   0.5625000  )
        88        C      tau(  88) = (   0.0000000   0.5000000   0.7500000  )
        89        C      tau(  89) = (   0.0625000   0.5625000   0.8125000  )
        90        C      tau(  90) = (   0.0000000   0.6250000   0.8750000  )
        91        C      tau(  91) = (   0.0625000   0.6875000   0.9375000  )
        92        C      tau(  92) = (   0.1250000   0.5000000   0.8750000  )
        93        C      tau(  93) = (   0.1875000   0.5625000   0.9375000  )
        94        C      tau(  94) = (   0.1250000   0.6250000   0.7500000  )
        95        C      tau(  95) = (   0.1875000   0.6875000   0.8125000  )
        96        C      tau(  96) = (   0.0000000   0.7500000   0.0000000  )
        97        C      tau(  97) = (   0.0625000   0.8125000   0.0625000  )
        98        C      tau(  98) = (   0.0000000   0.8750000   0.1250000  )
        99        C      tau(  99) = (   0.0625000   0.9375000   0.1875000  )
       100        C      tau( 100) = (   0.1250000   0.7500000   0.1250000  )
       101        C      tau( 101) = (   0.1875000   0.8125000   0.1875000  )
       102        C      tau( 102) = (   0.1250000   0.8750000   0.0000000  )
       103        C      tau( 103) = (   0.1875000   0.9375000   0.0625000  )
       104        C      tau( 104) = (   0.0000000   0.7500000   0.2500000  )
       105        C      tau( 105) = (   0.0625000   0.8125000   0.3125000  )
       106        C      tau( 106) = (   0.0000000   0.8750000   0.3750000  )
       107        C      tau( 107) = (   0.0625000   0.9375000   0.4375000  )
       108        C      tau( 108) = (   0.1250000   0.7500000   0.3750000  )
       109        C      tau( 109) = (   0.1875000   0.8125000   0.4375000  )
       110        C      tau( 110) = (   0.1250000   0.8750000   0.2500000  )
       111        C      tau( 111) = (   0.1875000   0.9375000   0.3125000  )
       112        C      tau( 112) = (   0.0000000   0.7500000   0.5000000  )
       113        C      tau( 113) = (   0.0625000   0.8125000   0.5625000  )
       114        C      tau( 114) = (   0.0000000   0.8750000   0.6250000  )
       115        C      tau( 115) = (   0.0625000   0.9375000   0.6875000  )
       116        C      tau( 116) = (   0.1250000   0.7500000   0.6250000  )
       117        C      tau( 117) = (   0.1875000   0.8125000   0.6875000  )
       118        C      tau( 118) = (   0.1250000   0.8750000   0.5000000  )
       119        C      tau( 119) = (   0.1875000   0.9375000   0.5625000  )
       120        C      tau( 120) = (   0.0000000   0.7500000   0.7500000  )
       121        C      tau( 121) = (   0.0625000   0.8125000   0.8125000  )
       122        C      tau( 122) = (   0.0000000   0.8750000   0.8750000  )
       123        C      tau( 123) = (   0.0625000   0.9375000   0.9375000  )
       124        C      tau( 124) = (   0.1250000   0.7500000   0.8750000  )
       125        C      tau( 125) = (   0.1875000   0.8125000   0.9375000  )
       126        C      tau( 126) = (   0.1250000   0.8750000   0.7500000  )
       127        C      tau( 127) = (   0.1875000   0.9375000   0.8125000  )
       128        C      tau( 128) = (   0.2500000   0.0000000   0.0000000  )
       129        C      tau( 129) = (   0.3125000   0.0625000   0.0625000  )
       130        C      tau( 130) = (   0.2500000   0.1250000   0.1250000  )
       131        C      tau( 131) = (   0.3125000   0.1875000   0.1875000  )
       132        C      tau( 132) = (   0.3750000   0.0000000   0.1250000  )
       133        C      tau( 133) = (   0.4375000   0.0625000   0.1875000  )
       134        C      tau( 134) = (   0.3750000   0.1250000   0.0000000  )
       135        C      tau( 135) = (   0.4375000   0.1875000   0.0625000  )
       136        C      tau( 136) = (   0.2500000   0.0000000   0.2500000  )
       137        C      tau( 137) = (   0.3125000   0.0625000   0.3125000  )
       138        C      tau( 138) = (   0.2500000   0.1250000   0.3750000  )
       139        C      tau( 139) = (   0.3125000   0.1875000   0.4375000  )
       140        C      tau( 140) = (   0.3750000   0.0000000   0.3750000  )
       141        C      tau( 141) = (   0.4375000   0.0625000   0.4375000  )
       142        C      tau( 142) = (   0.3750000   0.1250000   0.2500000  )
       143        C      tau( 143) = (   0.4375000   0.1875000   0.3125000  )
       144        C      tau( 144) = (   0.2500000   0.0000000   0.5000000  )
       145        C      tau( 145) = (   0.3125000   0.0625000   0.5625000  )
       146        C      tau( 146) = (   0.2500000   0.1250000   0.6250000  )
       147        C      tau( 147) = (   0.3125000   0.1875000   0.6875000  )
       148        C      tau( 148) = (   0.3750000   0.0000000   0.6250000  )
       149        C      tau( 149) = (   0.4375000   0.0625000   0.6875000  )
       150        C      tau( 150) = (   0.3750000   0.1250000   0.5000000  )
       151        C      tau( 151) = (   0.4375000   0.1875000   0.5625000  )
       152        C      tau( 152) = (   0.2500000   0.0000000   0.7500000  )
       153        C      tau( 153) = (   0.3125000   0.0625000   0.8125000  )
       154        C      tau( 154) = (   0.2500000   0.1250000   0.8750000  )
       155        C      tau( 155) = (   0.3125000   0.1875000   0.9375000  )
       156        C      tau( 156) = (   0.3750000   0.0000000   0.8750000  )
       157        C      tau( 157) = (   0.4375000   0.0625000   0.9375000  )
       158        C      tau( 158) = (   0.3750000   0.1250000   0.7500000  )
       159        C      tau( 159) = (   0.4375000   0.1875000   0.8125000  )
       160        C      tau( 160) = (   0.2500000   0.2500000   0.0000000  )
       161        C      tau( 161) = (   0.3125000   0.3125000   0.0625000  )
       162        C      tau( 162) = (   0.2500000   0.3750000   0.1250000  )
       163        C      tau( 163) = (   0.3125000   0.4375000   0.1875000  )
       164        C      tau( 164) = (   0.3750000   0.2500000   0.1250000  )
       165        C      tau( 165) = (   0.4375000   0.3125000   0.1875000  )
       166        C      tau( 166) = (   0.3750000   0.3750000   0.0000000  )
       167        C      tau( 167) = (   0.4375000   0.4375000   0.0625000  )
       168        C      tau( 168) = (   0.2500000   0.2500000   0.2500000  )
       169        C      tau( 169) = (   0.3125000   0.3125000   0.3125000  )
       170        C      tau( 170) = (   0.2500000   0.3750000   0.3750000  )
       171        C      tau( 171) = (   0.3125000   0.4375000   0.4375000  )
       172        C      tau( 172) = (   0.3750000   0.2500000   0.3750000  )
       173        C      tau( 173) = (   0.4375000   0.3125000   0.4375000  )
       174        C      tau( 174) = (   0.3750000   0.3750000   0.2500000  )
       175        C      tau( 175) = (   0.4375000   0.4375000   0.3125000  )
       176        C      tau( 176) = (   0.2500000   0.2500000   0.5000000  )
       177        C      tau( 177) = (   0.3125000   0.3125000   0.5625000  )
       178        C      tau( 178) = (   0.2500000   0.3750000   0.6250000  )
       179        C      tau( 179) = (   0.3125000   0.4375000   0.6875000  )
       180        C      tau( 180) = (   0.3750000   0.2500000   0.6250000  )
       181        C      tau( 181) = (   0.4375000   0.3125000   0.6875000  )
       182        C      tau( 182) = (   0.3750000   0.3750000   0.5000000  )
       183        C      tau( 183) = (   0.4375000   0.4375000   0.5625000  )
       184        C      tau( 184) = (   0.2500000   0.2500000   0.7500000  )
       185        C      tau( 185) = (   0.3125000   0.3125000   0.8125000  )
       186        C      tau( 186) = (   0.2500000   0.3750000   0.8750000  )
       187        C      tau( 187) = (   0.3125000   0.4375000   0.9375000  )
       188        C      tau( 188) = (   0.3750000   0.2500000   0.8750000  )
       189        C      tau( 189) = (   0.4375000   0.3125000   0.9375000  )
       190        C      tau( 190) = (   0.3750000   0.3750000   0.7500000  )
       191        C      tau( 191) = (   0.4375000   0.4375000   0.8125000  )
       192        C      tau( 192) = (   0.2500000   0.5000000   0.0000000  )
       193        C      tau( 193) = (   0.3125000   0.5625000   0.0625000  )
       194        C      tau( 194) = (   0.2500000   0.6250000   0.1250000  )
       195        C      tau( 195) = (   0.3125000   0.6875000   0.1875000  )
       196        C      tau( 196) = (   0.3750000   0.5000000   0.1250000  )
       197        C      tau( 197) = (   0.4375000   0.5625000   0.1875000  )
       198        C      tau( 198) = (   0.3750000   0.6250000   0.0000000  )
       199        C      tau( 199) = (   0.4375000   0.6875000   0.0625000  )
       200        C      tau( 200) = (   0.2500000   0.5000000   0.2500000  )
       201        C      tau( 201) = (   0.3125000   0.5625000   0.3125000  )
       202        C      tau( 202) = (   0.2500000   0.6250000   0.3750000  )
       203        C      tau( 203) = (   0.3125000   0.6875000   0.4375000  )
       204        C      tau( 204) = (   0.3750000   0.5000000   0.3750000  )
       205        C      tau( 205) = (   0.4375000   0.5625000   0.4375000  )
       206        C      tau( 206) = (   0.3750000   0.6250000   0.2500000  )
       207        C      tau( 207) = (   0.4375000   0.6875000   0.3125000  )
       208        C      tau( 208) = (   0.2500000   0.5000000   0.5000000  )
       209        C      tau( 209) = (   0.3125000   0.5625000   0.5625000  )
       210        C      tau( 210) = (   0.2500000   0.6250000   0.6250000  )
       211        C      tau( 211) = (   0.3125000   0.6875000   0.6875000  )
       212        C      tau( 212) = (   0.3750000   0.5000000   0.6250000  )
       213        C      tau( 213) = (   0.4375000   0.5625000   0.6875000  )
       214        C      tau( 214) = (   0.3750000   0.6250000   0.5000000  )
       215        C      tau( 215) = (   0.4375000   0.6875000   0.5625000  )
       216        C      tau( 216) = (   0.2500000   0.5000000   0.7500000  )
       217        C      tau( 217) = (   0.3125000   0.5625000   0.8125000  )
       218        C      tau( 218) = (   0.2500000   0.6250000   0.8750000  )
       219        C      tau( 219) = (   0.3125000   0.6875000   0.9375000  )
       220        C      tau( 220) = (   0.3750000   0.5000000   0.8750000  )
       221        C      tau( 221) = (   0.4375000   0.5625000   0.9375000  )
       222        C      tau( 222) = (   0.3750000   0.6250000   0.7500000  )
       223        C      tau( 223) = (   0.4375000   0.6875000   0.8125000  )
       224        C      tau( 224) = (   0.2500000   0.7500000   0.0000000  )
       225        C      tau( 225) = (   0.3125000   0.8125000   0.0625000  )
       226        C      tau( 226) = (   0.2500000   0.8750000   0.1250000  )
       227        C      tau( 227) = (   0.3125000   0.9375000   0.1875000  )
       228        C      tau( 228) = (   0.3750000   0.7500000   0.1250000  )
       229        C      tau( 229) = (   0.4375000   0.8125000   0.1875000  )
       230        C      tau( 230) = (   0.3750000   0.8750000   0.0000000  )
       231        C      tau( 231) = (   0.4375000   0.9375000   0.0625000  )
       232        C      tau( 232) = (   0.2500000   0.7500000   0.2500000  )
       233        C      tau( 233) = (   0.3125000   0.8125000   0.3125000  )
       234        C      tau( 234) = (   0.2500000   0.8750000   0.3750000  )
       235        C      tau( 235) = (   0.3125000   0.9375000   0.4375000  )
       236        C      tau( 236) = (   0.3750000   0.7500000   0.3750000  )
       237        C      tau( 237) = (   0.4375000   0.8125000   0.4375000  )
       238        C      tau( 238) = (   0.3750000   0.8750000   0.2500000  )
       239        C      tau( 239) = (   0.4375000   0.9375000   0.3125000  )
       240        C      tau( 240) = (   0.2500000   0.7500000   0.5000000  )
       241        C      tau( 241) = (   0.3125000   0.8125000   0.5625000  )
       242        C      tau( 242) = (   0.2500000   0.8750000   0.6250000  )
       243        C      tau( 243) = (   0.3125000   0.9375000   0.6875000  )
       244        C      tau( 244) = (   0.3750000   0.7500000   0.6250000  )
       245        C      tau( 245) = (   0.4375000   0.8125000   0.6875000  )
       246        C      tau( 246) = (   0.3750000   0.8750000   0.5000000  )
       247        C      tau( 247) = (   0.4375000   0.9375000   0.5625000  )
       248        C      tau( 248) = (   0.2500000   0.7500000   0.7500000  )
       249        C      tau( 249) = (   0.3125000   0.8125000   0.8125000  )
       250        C      tau( 250) = (   0.2500000   0.8750000   0.8750000  )
       251        C      tau( 251) = (   0.3125000   0.9375000   0.9375000  )
       252        C      tau( 252) = (   0.3750000   0.7500000   0.8750000  )
       253        C      tau( 253) = (   0.4375000   0.8125000   0.9375000  )
       254        C      tau( 254) = (   0.3750000   0.8750000   0.7500000  )
       255        C      tau( 255) = (   0.4375000   0.9375000   0.8125000  )
       256        C      tau( 256) = (   0.5000000   0.0000000   0.0000000  )
       257        C      tau( 257) = (   0.5625000   0.0625000   0.0625000  )
       258        C      tau( 258) = (   0.5000000   0.1250000   0.1250000  )
       259        C      tau( 259) = (   0.5625000   0.1875000   0.1875000  )
       260        C      tau( 260) = (   0.6250000   0.0000000   0.1250000  )
       261        C      tau( 261) = (   0.6875000   0.0625000   0.1875000  )
       262        C      tau( 262) = (   0.6250000   0.1250000   0.0000000  )
       263        C      tau( 263) = (   0.6875000   0.1875000   0.0625000  )
       264        C      tau( 264) = (   0.5000000   0.0000000   0.2500000  )
       265        C      tau( 265) = (   0.5625000   0.0625000   0.3125000  )
       266        C      tau( 266) = (   0.5000000   0.1250000   0.3750000  )
       267        C      tau( 267) = (   0.5625000   0.1875000   0.4375000  )
       268        C      tau( 268) = (   0.6250000   0.0000000   0.3750000  )
       269        C      tau( 269) = (   0.6875000   0.0625000   0.4375000  )
       270        C      tau( 270) = (   0.6250000   0.1250000   0.2500000  )
       271        C      tau( 271) = (   0.6875000   0.1875000   0.3125000  )
       272        C      tau( 272) = (   0.5000000   0.0000000   0.5000000  )
       273        C      tau( 273) = (   0.5625000   0.0625000   0.5625000  )
       274        C      tau( 274) = (   0.5000000   0.1250000   0.6250000  )
       275        C      tau( 275) = (   0.5625000   0.1875000   0.6875000  )
       276        C      tau( 276) = (   0.6250000   0.0000000   0.6250000  )
       277        C      tau( 277) = (   0.6875000   0.0625000   0.6875000  )
       278        C      tau( 278) = (   0.6250000   0.1250000   0.5000000  )
       279        C      tau( 279) = (   0.6875000   0.1875000   0.5625000  )
       280        C      tau( 280) = (   0.5000000   0.0000000   0.7500000  )
       281        C      tau( 281) = (   0.5625000   0.0625000   0.8125000  )
       282        C      tau( 282) = (   0.5000000   0.1250000   0.8750000  )
       283        C      tau( 283) = (   0.5625000   0.1875000   0.9375000  )
       284        C      tau( 284) = (   0.6250000   0.0000000   0.8750000  )
       285        C      tau( 285) = (   0.6875000   0.0625000   0.9375000  )
       286        C      tau( 286) = (   0.6250000   0.1250000   0.7500000  )
       287        C      tau( 287) = (   0.6875000   0.1875000   0.8125000  )
       288        C      tau( 288) = (   0.5000000   0.2500000   0.0000000  )
       289        C      tau( 289) = (   0.5625000   0.3125000   0.0625000  )
       290        C      tau( 290) = (   0.5000000   0.3750000   0.1250000  )
       291        C      tau( 291) = (   0.5625000   0.4375000   0.1875000  )
       292        C      tau( 292) = (   0.6250000   0.2500000   0.1250000  )
       293        C      tau( 293) = (   0.6875000   0.3125000   0.1875000  )
       294        C      tau( 294) = (   0.6250000   0.3750000   0.0000000  )
       295        C      tau( 295) = (   0.6875000   0.4375000   0.0625000  )
       296        C      tau( 296) = (   0.5000000   0.2500000   0.2500000  )
       297        C      tau( 297) = (   0.5625000   0.3125000   0.3125000  )
       298        C      tau( 298) = (   0.5000000   0.3750000   0.3750000  )
       299        C      tau( 299) = (   0.5625000   0.4375000   0.4375000  )
       300        C      tau( 300) = (   0.6250000   0.2500000   0.3750000  )
       301        C      tau( 301) = (   0.6875000   0.3125000   0.4375000  )
       302        C      tau( 302) = (   0.6250000   0.3750000   0.2500000  )
       303        C      tau( 303) = (   0.6875000   0.4375000   0.3125000  )
       304        C      tau( 304) = (   0.5000000   0.2500000   0.5000000  )
       305        C      tau( 305) = (   0.5625000   0.3125000   0.5625000  )
       306        C      tau( 306) = (   0.5000000   0.3750000   0.6250000  )
       307        C      tau( 307) = (   0.5625000   0.4375000   0.6875000  )
       308        C      tau( 308) = (   0.6250000   0.2500000   0.6250000  )
       309        C      tau( 309) = (   0.6875000   0.3125000   0.6875000  )
       310        C      tau( 310) = (   0.6250000   0.3750000   0.5000000  )
       311        C      tau( 311) = (   0.6875000   0.4375000   0.5625000  )
       312        C      tau( 312) = (   0.5000000   0.2500000   0.7500000  )
       313        C      tau( 313) = (   0.5625000   0.3125000   0.8125000  )
       314        C      tau( 314) = (   0.5000000   0.3750000   0.8750000  )
       315        C      tau( 315) = (   0.5625000   0.4375000   0.9375000  )
       316        C      tau( 316) = (   0.6250000   0.2500000   0.8750000  )
       317        C      tau( 317) = (   0.6875000   0.3125000   0.9375000  )
       318        C      tau( 318) = (   0.6250000   0.3750000   0.7500000  )
       319        C      tau( 319) = (   0.6875000   0.4375000   0.8125000  )
       320        C      tau( 320) = (   0.5000000   0.5000000   0.0000000  )
       321        C      tau( 321) = (   0.5625000   0.5625000   0.0625000  )
       322        C      tau( 322) = (   0.5000000   0.6250000   0.1250000  )
       323        C      tau( 323) = (   0.5625000   0.6875000   0.1875000  )
       324        C      tau( 324) = (   0.6250000   0.5000000   0.1250000  )
       325        C      tau( 325) = (   0.6875000   0.5625000   0.1875000  )
       326        C      tau( 326) = (   0.6250000   0.6250000   0.0000000  )
       327        C      tau( 327) = (   0.6875000   0.6875000   0.0625000  )
       328        C      tau( 328) = (   0.5000000   0.5000000   0.2500000  )
       329        C      tau( 329) = (   0.5625000   0.5625000   0.3125000  )
       330        C      tau( 330) = (   0.5000000   0.6250000   0.3750000  )
       331        C      tau( 331) = (   0.5625000   0.6875000   0.4375000  )
       332        C      tau( 332) = (   0.6250000   0.5000000   0.3750000  )
       333        C      tau( 333) = (   0.6875000   0.5625000   0.4375000  )
       334        C      tau( 334) = (   0.6250000   0.6250000   0.2500000  )
       335        C      tau( 335) = (   0.6875000   0.6875000   0.3125000  )
       336        C      tau( 336) = (   0.5000000   0.5000000   0.5000000  )
       337        C      tau( 337) = (   0.5625000   0.5625000   0.5625000  )
       338        C      tau( 338) = (   0.5000000   0.6250000   0.6250000  )
       339        C      tau( 339) = (   0.5625000   0.6875000   0.6875000  )
       340        C      tau( 340) = (   0.6250000   0.5000000   0.6250000  )
       341        C      tau( 341) = (   0.6875000   0.5625000   0.6875000  )
       342        C      tau( 342) = (   0.6250000   0.6250000   0.5000000  )
       343        C      tau( 343) = (   0.6875000   0.6875000   0.5625000  )
       344        C      tau( 344) = (   0.5000000   0.5000000   0.7500000  )
       345        C      tau( 345) = (   0.5625000   0.5625000   0.8125000  )
       346        C      tau( 346) = (   0.5000000   0.6250000   0.8750000  )
       347        C      tau( 347) = (   0.5625000   0.6875000   0.9375000  )
       348        C      tau( 348) = (   0.6250000   0.5000000   0.8750000  )
       349        C      tau( 349) = (   0.6875000   0.5625000   0.9375000  )
       350        C      tau( 350) = (   0.6250000   0.6250000   0.7500000  )
       351        C      tau( 351) = (   0.6875000   0.6875000   0.8125000  )
       352        C      tau( 352) = (   0.5000000   0.7500000   0.0000000  )
       353        C      tau( 353) = (   0.5625000   0.8125000   0.0625000  )
       354        C      tau( 354) = (   0.5000000   0.8750000   0.1250000  )
       355        C      tau( 355) = (   0.5625000   0.9375000   0.1875000  )
       356        C      tau( 356) = (   0.6250000   0.7500000   0.1250000  )
       357        C      tau( 357) = (   0.6875000   0.8125000   0.1875000  )
       358        C      tau( 358) = (   0.6250000   0.8750000   0.0000000  )
       359        C      tau( 359) = (   0.6875000   0.9375000   0.0625000  )
       360        C      tau( 360) = (   0.5000000   0.7500000   0.2500000  )
       361        C      tau( 361) = (   0.5625000   0.8125000   0.3125000  )
       362        C      tau( 362) = (   0.5000000   0.8750000   0.3750000  )
       363        C      tau( 363) = (   0.5625000   0.9375000   0.4375000  )
       364        C      tau( 364) = (   0.6250000   0.7500000   0.3750000  )
       365        C      tau( 365) = (   0.6875000   0.8125000   0.4375000  )
       366        C      tau( 366) = (   0.6250000   0.8750000   0.2500000  )
       367        C      tau( 367) = (   0.6875000   0.9375000   0.3125000  )
       368        C      tau( 368) = (   0.5000000   0.7500000   0.5000000  )
       369        C      tau( 369) = (   0.5625000   0.8125000   0.5625000  )
       370        C      tau( 370) = (   0.5000000   0.8750000   0.6250000  )
       371        C      tau( 371) = (   0.5625000   0.9375000   0.6875000  )
       372        C      tau( 372) = (   0.6250000   0.7500000   0.6250000  )
       373        C      tau( 373) = (   0.6875000   0.8125000   0.6875000  )
       374        C      tau( 374) = (   0.6250000   0.8750000   0.5000000  )
       375        C      tau( 375) = (   0.6875000   0.9375000   0.5625000  )
       376        C      tau( 376) = (   0.5000000   0.7500000   0.7500000  )
       377        C      tau( 377) = (   0.5625000   0.8125000   0.8125000  )
       378        C      tau( 378) = (   0.5000000   0.8750000   0.8750000  )
       379        C      tau( 379) = (   0.5625000   0.9375000   0.9375000  )
       380        C      tau( 380) = (   0.6250000   0.7500000   0.8750000  )
       381        C      tau( 381) = (   0.6875000   0.8125000   0.9375000  )
       382        C      tau( 382) = (   0.6250000   0.8750000   0.7500000  )
       383        C      tau( 383) = (   0.6875000   0.9375000   0.8125000  )
       384        C      tau( 384) = (   0.7500000   0.0000000   0.0000000  )
       385        C      tau( 385) = (   0.8125000   0.0625000   0.0625000  )
       386        C      tau( 386) = (   0.7500000   0.1250000   0.1250000  )
       387        C      tau( 387) = (   0.8125000   0.1875000   0.1875000  )
       388        C      tau( 388) = (   0.8750000   0.0000000   0.1250000  )
       389        C      tau( 389) = (   0.9375000   0.0625000   0.1875000  )
       390        C      tau( 390) = (   0.8750000   0.1250000   0.0000000  )
       391        C      tau( 391) = (   0.9375000   0.1875000   0.0625000  )
       392        C      tau( 392) = (   0.7500000   0.0000000   0.2500000  )
       393        C      tau( 393) = (   0.8125000   0.0625000   0.3125000  )
       394        C      tau( 394) = (   0.7500000   0.1250000   0.3750000  )
       395        C      tau( 395) = (   0.8125000   0.1875000   0.4375000  )
       396        C      tau( 396) = (   0.8750000   0.0000000   0.3750000  )
       397        C      tau( 397) = (   0.9375000   0.0625000   0.4375000  )
       398        C      tau( 398) = (   0.8750000   0.1250000   0.2500000  )
       399        C      tau( 399) = (   0.9375000   0.1875000   0.3125000  )
       400        C      tau( 400) = (   0.7500000   0.0000000   0.5000000  )
       401        C      tau( 401) = (   0.8125000   0.0625000   0.5625000  )
       402        C      tau( 402) = (   0.7500000   0.1250000   0.6250000  )
       403        C      tau( 403) = (   0.8125000   0.1875000   0.6875000  )
       404        C      tau( 404) = (   0.8750000   0.0000000   0.6250000  )
       405        C      tau( 405) = (   0.9375000   0.0625000   0.6875000  )
       406        C      tau( 406) = (   0.8750000   0.1250000   0.5000000  )
       407        C      tau( 407) = (   0.9375000   0.1875000   0.5625000  )
       408        C      tau( 408) = (   0.7500000   0.0000000   0.7500000  )
       409        C      tau( 409) = (   0.8125000   0.0625000   0.8125000  )
       410        C      tau( 410) = (   0.7500000   0.1250000   0.8750000  )
       411        C      tau( 411) = (   0.8125000   0.1875000   0.9375000  )
       412        C      tau( 412) = (   0.8750000   0.0000000   0.8750000  )
       413        C      tau( 413) = (   0.9375000   0.0625000   0.9375000  )
       414        C      tau( 414) = (   0.8750000   0.1250000   0.7500000  )
       415        C      tau( 415) = (   0.9375000   0.1875000   0.8125000  )
       416        C      tau( 416) = (   0.7500000   0.2500000   0.0000000  )
       417        C      tau( 417) = (   0.8125000   0.3125000   0.0625000  )
       418        C      tau( 418) = (   0.7500000   0.3750000   0.1250000  )
       419        C      tau( 419) = (   0.8125000   0.4375000   0.1875000  )
       420        C      tau( 420) = (   0.8750000   0.2500000   0.1250000  )
       421        C      tau( 421) = (   0.9375000   0.3125000   0.1875000  )
       422        C      tau( 422) = (   0.8750000   0.3750000   0.0000000  )
       423        C      tau( 423) = (   0.9375000   0.4375000   0.0625000  )
       424        C      tau( 424) = (   0.7500000   0.2500000   0.2500000  )
       425        C      tau( 425) = (   0.8125000   0.3125000   0.3125000  )
       426        C      tau( 426) = (   0.7500000   0.3750000   0.3750000  )
       427        C      tau( 427) = (   0.8125000   0.4375000   0.4375000  )
       428        C      tau( 428) = (   0.8750000   0.2500000   0.3750000  )
       429        C      tau( 429) = (   0.9375000   0.3125000   0.4375000  )
       430        C      tau( 430) = (   0.8750000   0.3750000   0.2500000  )
       431        C      tau( 431) = (   0.9375000   0.4375000   0.3125000  )
       432        C      tau( 432) = (   0.7500000   0.2500000   0.5000000  )
       433        C      tau( 433) = (   0.8125000   0.3125000   0.5625000  )
       434        C      tau( 434) = (   0.7500000   0.3750000   0.6250000  )
       435        C      tau( 435) = (   0.8125000   0.4375000   0.6875000  )
       436        C      tau( 436) = (   0.8750000   0.2500000   0.6250000  )
       437        C      tau( 437) = (   0.9375000   0.3125000   0.6875000  )
       438        C      tau( 438) = (   0.8750000   0.3750000   0.5000000  )
       439        C      tau( 439) = (   0.9375000   0.4375000   0.5625000  )
       440        C      tau( 440) = (   0.7500000   0.2500000   0.7500000  )
       441        C      tau( 441) = (   0.8125000   0.3125000   0.8125000  )
       442        C      tau( 442) = (   0.7500000   0.3750000   0.8750000  )
       443        C      tau( 443) = (   0.8125000   0.4375000   0.9375000  )
       444        C      tau( 444) = (   0.8750000   0.2500000   0.8750000  )
       445        C      tau( 445) = (   0.9375000   0.3125000   0.9375000  )
       446        C      tau( 446) = (   0.8750000   0.3750000   0.7500000  )
       447        C      tau( 447) = (   0.9375000   0.4375000   0.8125000  )
       448        C      tau( 448) = (   0.7500000   0.5000000   0.0000000  )
       449        C      tau( 449) = (   0.8125000   0.5625000   0.0625000  )
       450        C      tau( 450) = (   0.7500000   0.6250000   0.1250000  )
       451        C      tau( 451) = (   0.8125000   0.6875000   0.1875000  )
       452        C      tau( 452) = (   0.8750000   0.5000000   0.1250000  )
       453        C      tau( 453) = (   0.9375000   0.5625000   0.1875000  )
       454        C      tau( 454) = (   0.8750000   0.6250000   0.0000000  )
       455        C      tau( 455) = (   0.9375000   0.6875000   0.0625000  )
       456        C      tau( 456) = (   0.7500000   0.5000000   0.2500000  )
       457        C      tau( 457) = (   0.8125000   0.5625000   0.3125000  )
       458        C      tau( 458) = (   0.7500000   0.6250000   0.3750000  )
       459        C      tau( 459) = (   0.8125000   0.6875000   0.4375000  )
       460        C      tau( 460) = (   0.8750000   0.5000000   0.3750000  )
       461        C      tau( 461) = (   0.9375000   0.5625000   0.4375000  )
       462        C      tau( 462) = (   0.8750000   0.6250000   0.2500000  )
       463        C      tau( 463) = (   0.9375000   0.6875000   0.3125000  )
       464        C      tau( 464) = (   0.7500000   0.5000000   0.5000000  )
       465        C      tau( 465) = (   0.8125000   0.5625000   0.5625000  )
       466        C      tau( 466) = (   0.7500000   0.6250000   0.6250000  )
       467        C      tau( 467) = (   0.8125000   0.6875000   0.6875000  )
       468        C      tau( 468) = (   0.8750000   0.5000000   0.6250000  )
       469        C      tau( 469) = (   0.9375000   0.5625000   0.6875000  )
       470        C      tau( 470) = (   0.8750000   0.6250000   0.5000000  )
       471        C      tau( 471) = (   0.9375000   0.6875000   0.5625000  )
       472        C      tau( 472) = (   0.7500000   0.5000000   0.7500000  )
       473        C      tau( 473) = (   0.8125000   0.5625000   0.8125000  )
       474        C      tau( 474) = (   0.7500000   0.6250000   0.8750000  )
       475        C      tau( 475) = (   0.8125000   0.6875000   0.9375000  )
       476        C      tau( 476) = (   0.8750000   0.5000000   0.8750000  )
       477        C      tau( 477) = (   0.9375000   0.5625000   0.9375000  )
       478        C      tau( 478) = (   0.8750000   0.6250000   0.7500000  )
       479        C      tau( 479) = (   0.9375000   0.6875000   0.8125000  )
       480        C      tau( 480) = (   0.7500000   0.7500000   0.0000000  )
       481        C      tau( 481) = (   0.8125000   0.8125000   0.0625000  )
       482        C      tau( 482) = (   0.7500000   0.8750000   0.1250000  )
       483        C      tau( 483) = (   0.8125000   0.9375000   0.1875000  )
       484        C      tau( 484) = (   0.8750000   0.7500000   0.1250000  )
       485        C      tau( 485) = (   0.9375000   0.8125000   0.1875000  )
       486        C      tau( 486) = (   0.8750000   0.8750000   0.0000000  )
       487        C      tau( 487) = (   0.9375000   0.9375000   0.0625000  )
       488        C      tau( 488) = (   0.7500000   0.7500000   0.2500000  )
       489        C      tau( 489) = (   0.8125000   0.8125000   0.3125000  )
       490        C      tau( 490) = (   0.7500000   0.8750000   0.3750000  )
       491        C      tau( 491) = (   0.8125000   0.9375000   0.4375000  )
       492        C      tau( 492) = (   0.8750000   0.7500000   0.3750000  )
       493        C      tau( 493) = (   0.9375000   0.8125000   0.4375000  )
       494        C      tau( 494) = (   0.8750000   0.8750000   0.2500000  )
       495        C      tau( 495) = (   0.9375000   0.9375000   0.3125000  )
       496        C      tau( 496) = (   0.7500000   0.7500000   0.5000000  )
       497        C      tau( 497) = (   0.8125000   0.8125000   0.5625000  )
       498        C      tau( 498) = (   0.7500000   0.8750000   0.6250000  )
       499        C      tau( 499) = (   0.8125000   0.9375000   0.6875000  )
       500        C      tau( 500) = (   0.8750000   0.7500000   0.6250000  )
       501        C      tau( 501) = (   0.9375000   0.8125000   0.6875000  )
       502        C      tau( 502) = (   0.8750000   0.8750000   0.5000000  )
       503        C      tau( 503) = (   0.9375000   0.9375000   0.5625000  )
       504        C      tau( 504) = (   0.7500000   0.7500000   0.7500000  )
       505        C      tau( 505) = (   0.8125000   0.8125000   0.8125000  )
       506        C      tau( 506) = (   0.7500000   0.8750000   0.8750000  )
       507        C      tau( 507) = (   0.8125000   0.9375000   0.9375000  )
       508        C      tau( 508) = (   0.8750000   0.7500000   0.8750000  )
       509        C      tau( 509) = (   0.9375000   0.8125000   0.9375000  )
       510        C      tau( 510) = (   0.8750000   0.8750000   0.7500000  )
       511        C      tau( 511) = (   0.9375000   0.9375000   0.8125000  )

     number of k points=     1
                       cart. coord. in units 2pi/alat
        k(    1) = (   0.0000000   0.0000000   0.0000000), wk =   2.0000000

     Dense  grid:   468093 G-vectors     FFT dimensions: ( 128, 128, 125)

     Estimated max dynamical RAM per process >       1.17 GB

     Estimated total dynamical RAM >       9.37 GB

     Initial potential from superposition of free atoms

     starting charge    2041.4445, renormalised to    2046.0000
     Starting wfcs are random

     total cpu time spent up to now is       10.1 secs

     Self-consistent Calculation

     iteration #  1     ecut=    50.00 Ry     beta= 0.70
     Davidson diagonalization with overlap
     ethr =  1.00E-02,  avg # of iterations = 12.0

     total cpu time spent up to now is       12.4 secs

     total energy              =   -5819.65634409 Ry
     estimated scf accuracy    <      28.44501161 Ry

     iteration #  2     ecut=    50.00 Ry     beta= 0.70
     Davidson diagonalization with overlap
     ethr =  1.39E-03,  avg # of iterations =  8.0

     total cpu time spent up to now is       14.9 secs

     total energy              =   -5822.90091728 Ry
     estimated scf accuracy    <       2.98616138 Ry

     iteration #  3     ecut=    50.00 Ry     beta= 0.70
     Davidson diagonalization with overlap
     ethr =  1.46E-04,  avg # of iterations = 13.0

     total cpu time spent up to now is       16.2 secs

     total energy              =   -5823.34691429 Ry
     estimated scf accuracy    <      10.09756013 Ry

     iteration #  4     ecut=    50.00 Ry     beta= 0.70
     Davidson diagonalization with overlap
     ethr =  1.46E-04,  avg # of iterations =  9.0

     total cpu time spent up to now is       17.2 secs

     total energy              =   -5824.75369057 Ry
     estimated scf accuracy    <       0.79233838 Ry

     iteration #  5     ecut=    50.00 Ry     beta= 0.70
     Davidson diagonalization with overlap
     ethr =  3.87E-05,  avg # of iterations = 11.0

     total cpu time spent up to now is       18.1 secs

     total energy              =   -5824.77059316 Ry
     estimated scf accuracy    <       0.45167970 Ry

     iteration #  6     ecut=    50.00 Ry     beta= 0.70
     Davidson diagonalization with overlap
     ethr =  2.21E-05,  avg # of iterations = 13.0

     total cpu time spent up to now is       19.1 secs

     total energy              =   -5824.82198005 Ry
     estimated scf accuracy    <       0.31893207 Ry

     iteration #  7     ecut=    50.00 Ry     beta= 0.70
     Davidson diagonalization with overlap
     ethr =  1.56E-05,  avg # of iterations = 14.0

     total cpu time spent up to now is       20.1 secs

     total energy              =   -5824.80207922 Ry
     estimated scf accuracy    <       0.18247006 Ry

     iteration #  8     ecut=    50.00 Ry     beta= 0.70
     Davidson diagonalization with overlap
     ethr =  8.92E-06,  avg # of iterations = 13.0

     total cpu time spent up to now is       21.0 secs

     total energy              =   -5824.84862521 Ry
     estimated scf accuracy    <       0.27565481 Ry

     iteration #  9     ecut=    50.00 Ry     beta= 0.70
     Davidson diagonalization with overlap
     ethr =  8.92E-06,  avg # of iterations =  3.0

     total cpu time spent up to now is       21.8 secs

     total energy              =   -5824.82727914 Ry
     estimated scf accuracy    <       0.22341231 Ry

     iteration # 10     ecut=    50.00 Ry     beta= 0.70
     Davidson diagonalization with overlap
     ethr =  8.92E-06,  avg # of iterations =  5.0

     total cpu time spent up to now is       22.4 secs

     total energy              =   -5824.81722530 Ry
     estimated scf accuracy    <       0.15052472 Ry

     iteration # 11     ecut=    50.00 Ry     beta= 0.70
     Davidson diagonalization with overlap
     ethr =  7.36E-06,  avg # of iterations =  5.0

     total cpu time spent up to now is       23.1 secs

     total energy              =   -5824.80974846 Ry
     estimated scf accuracy    <       0.11041213 Ry

     iteration # 12     ecut=    50.00 Ry     beta= 0.70
     Davidson diagonalization with overlap
     ethr =  5.40E-06,  avg # of iterations = 16.0

     total cpu time spent up to now is       24.1 secs

     total energy              =   -5824.85970680 Ry
     estimated scf accuracy    <       0.33365190 Ry

     iteration # 13     ecut=    50.00 Ry     beta= 0.70
     Davidson diagonalization with overlap
     ethr =  5.40E-06,  avg # of iterations =  2.0

     total cpu time spent up to now is       24.7 secs

     total energy              =   -5824.85187479 Ry
     estimated scf accuracy    <       0.32058965 Ry

     iteration # 14     ecut=    50.00 Ry     beta= 0.70
     Davidson diagonalization with overlap
     ethr =  5.40E-06,  avg # of iterations =  6.0

     total cpu time spent up to now is       25.4 secs

     total energy              =   -5824.84090361 Ry
     estimated scf accuracy    <       0.27091091 Ry

     iteration # 15     ecut=    50.00 Ry     beta= 0.70
     Davidson diagonalization with overlap
     ethr =  5.40E-06,  avg # of iterations =  6.0

     total cpu time spent up to now is       26.1 secs

     total energy              =   -5824.84137319 Ry
     estimated scf accuracy    <       0.20858196 Ry

     iteration # 16     ecut=    50.00 Ry     beta= 0.70
     Davidson diagonalization with overlap
     ethr =  5.40E-06,  avg # of iterations =  1.0

     total cpu time spent up to now is       26.6 secs

     total energy              =   -5824.84064804 Ry
     estimated scf accuracy    <       0.20776652 Ry

     iteration # 17     ecut=    50.00 Ry     beta= 0.70
     Davidson diagonalization with overlap
     ethr =  5.40E-06,  avg # of iterations =  1.0

     total cpu time spent up to now is       27.1 secs

     total energy              =   -5824.84104717 Ry
     estimated scf accuracy    <       0.20380127 Ry

     iteration # 18     ecut=    50.00 Ry     beta= 0.70
     Davidson diagonalization with overlap
     ethr =  5.40E-06,  avg # of iterations =  1.0

     total cpu time spent up to now is       27.7 secs

     total energy              =   -5824.84658257 Ry
     estimated scf accuracy    <       0.20398529 Ry

     iteration # 19     ecut=    50.00 Ry     beta= 0.70
     Davidson diagonalization with overlap
     ethr =  5.40E-06,  avg # of iterations =  2.0

     total cpu time spent up to now is       28.3 secs

     total energy              =   -5824.85113587 Ry
     estimated scf accuracy    <       0.22391775 Ry

     iteration # 20     ecut=    50.00 Ry     beta= 0.70
     Davidson diagonalization with overlap
     ethr =  5.40E-06,  avg # of iterations =  6.0

     total cpu time spent up to now is       29.3 secs

     total energy              =   -5824.74550922 Ry
     estimated scf accuracy    <       0.26127078 Ry

     iteration # 21     ecut=    50.00 Ry     beta= 0.70
     Davidson diagonalization with overlap
     ethr =  5.40E-06,  avg # of iterations = 12.0

     total cpu time spent up to now is       30.4 secs

     total energy              =   -5824.88360474 Ry
     estimated scf accuracy    <       0.72216885 Ry

     iteration # 22     ecut=    50.00 Ry     beta= 0.70
     Davidson diagonalization with overlap
     ethr =  5.40E-06,  avg # of iterations =  9.0

     total cpu time spent up to now is       31.3 secs

     total energy              =   -5824.84840799 Ry
     estimated scf accuracy    <       0.40457726 Ry

     iteration # 23     ecut=    50.00 Ry     beta= 0.70
     Davidson diagonalization with overlap
     ethr =  5.40E-06,  avg # of iterations =  8.0

     total cpu time spent up to now is       32.0 secs

     total energy              =   -5824.83887747 Ry
     estimated scf accuracy    <       0.24434689 Ry

     iteration # 24     ecut=    50.00 Ry     beta= 0.70
     Davidson diagonalization with overlap
     ethr =  5.40E-06,  avg # of iterations = 10.0

     total cpu time spent up to now is       32.9 secs

     total energy              =   -5824.83327142 Ry
     estimated scf accuracy    <       0.18682744 Ry

     iteration # 25     ecut=    50.00 Ry     beta= 0.70
     Davidson diagonalization with overlap
     ethr =  5.40E-06,  avg # of iterations =  2.0

     total cpu time spent up to now is       33.4 secs

     total energy              =   -5824.83167213 Ry
     estimated scf accuracy    <       0.16442856 Ry

     iteration # 26     ecut=    50.00 Ry     beta= 0.70
     Davidson diagonalization with overlap
     ethr =  5.40E-06,  avg # of iterations =  1.0

     total cpu time spent up to now is       33.9 secs

     total energy              =   -5824.83037955 Ry
     estimated scf accuracy    <       0.15628940 Ry

     iteration # 27     ecut=    50.00 Ry     beta= 0.70
     Davidson diagonalization with overlap
     ethr =  5.40E-06,  avg # of iterations =  1.0

     total cpu time spent up to now is       34.5 secs

     total energy              =   -5824.82886334 Ry
     estimated scf accuracy    <       0.14940522 Ry

     iteration # 28     ecut=    50.00 Ry     beta= 0.70
     Davidson diagonalization with overlap
     ethr =  5.40E-06,  avg # of iterations =  1.0

     total cpu time spent up to now is       35.0 secs

     total energy              =   -5824.82442986 Ry
     estimated scf accuracy    <       0.14276214 Ry

     iteration # 29     ecut=    50.00 Ry     beta= 0.70
     Davidson diagonalization with overlap
     ethr =  5.40E-06,  avg # of iterations =  2.0

     total cpu time spent up to now is       35.6 secs

     total energy              =   -5824.77500359 Ry
     estimated scf accuracy    <       0.12822244 Ry

     iteration # 30     ecut=    50.00 Ry     beta= 0.70
     Davidson diagonalization with overlap
     ethr =  5.40E-06,  avg # of iterations = 14.0

     total cpu time spent up to now is       36.6 secs

     total energy              =   -5824.87238387 Ry
     estimated scf accuracy    <       0.80919861 Ry

     iteration # 31     ecut=    50.00 Ry     beta= 0.70
     Davidson diagonalization with overlap
     ethr =  5.40E-06,  avg # of iterations =  7.0

     total cpu time spent up to now is       37.4 secs

     total energy              =   -5824.85838878 Ry
     estimated scf accuracy    <       0.44102007 Ry

     iteration # 32     ecut=    50.00 Ry     beta= 0.70
     Davidson diagonalization with overlap
     ethr =  5.40E-06,  avg # of iterations =  6.0

     total cpu time spent up to now is       38.1 secs

     total energy              =   -5824.82937409 Ry
     estimated scf accuracy    <       0.32565802 Ry

     iteration # 33     ecut=    50.00 Ry     beta= 0.70
     Davidson diagonalization with overlap
     ethr =  5.40E-06,  avg # of iterations = 13.0

     total cpu time spent up to now is       39.0 secs

     total energy              =   -5824.83514326 Ry
     estimated scf accuracy    <       0.16313189 Ry

     iteration # 34     ecut=    50.00 Ry     beta= 0.70
     Davidson diagonalization with overlap
     ethr =  5.40E-06,  avg # of iterations = 13.0

     total cpu time spent up to now is       39.9 secs

     total energy              =   -5824.84105898 Ry
     estimated scf accuracy    <       0.20152622 Ry

     iteration # 35     ecut=    50.00 Ry     beta= 0.70
     Davidson diagonalization with overlap
     ethr =  5.40E-06,  avg # of iterations =  1.0

     total cpu time spent up to now is       40.5 secs

     total energy              =   -5824.84036952 Ry
     estimated scf accuracy    <       0.20262449 Ry

     iteration # 36     ecut=    50.00 Ry     beta= 0.70
     Davidson diagonalization with overlap
     ethr =  5.40E-06,  avg # of iterations =  1.0

     total cpu time spent up to now is       41.0 secs

     total energy              =   -5824.84303431 Ry
     estimated scf accuracy    <       0.20064157 Ry

     iteration # 37     ecut=    50.00 Ry     beta= 0.70
     Davidson diagonalization with overlap
     ethr =  5.40E-06,  avg # of iterations =  1.0

     total cpu time spent up to now is       41.6 secs

     total energy              =   -5824.84314031 Ry
     estimated scf accuracy    <       0.20982160 Ry

     iteration # 38     ecut=    50.00 Ry     beta= 0.70
     Davidson diagonalization with overlap
     ethr =  5.40E-06,  avg # of iterations =  1.0

     total cpu time spent up to now is       42.1 secs

     total energy              =   -5824.76747898 Ry
     estimated scf accuracy    <       0.21092343 Ry

     iteration # 39     ecut=    50.00 Ry     beta= 0.70
     Davidson diagonalization with overlap
     ethr =  5.40E-06,  avg # of iterations = 13.0

     total cpu time spent up to now is       43.2 secs

     total energy              =   -5824.87118432 Ry
     estimated scf accuracy    <       0.48343901 Ry

     iteration # 40     ecut=    50.00 Ry     beta= 0.70
     Davidson diagonalization with overlap
     ethr =  5.40E-06,  avg # of iterations =  8.0

     total cpu time spent up to now is       44.0 secs

     total energy              =   -5824.85508478 Ry
     estimated scf accuracy    <       0.31050895 Ry

     iteration # 41     ecut=    50.00 Ry     beta= 0.70
     Davidson diagonalization with overlap
     ethr =  5.40E-06,  avg # of iterations =  3.0

     total cpu time spent up to now is       44.6 secs

     total energy              =   -5824.82812062 Ry
     estimated scf accuracy    <       0.24864692 Ry

     iteration # 42     ecut=    50.00 Ry     beta= 0.70
     Davidson diagonalization with overlap
     ethr =  5.40E-06,  avg # of iterations =  7.0

     total cpu time spent up to now is       45.3 secs

     total energy              =   -5824.83011049 Ry
     estimated scf accuracy    <       0.15264968 Ry

     iteration # 43     ecut=    50.00 Ry     beta= 0.70
     Davidson diagonalization with overlap
     ethr =  5.40E-06,  avg # of iterations =  2.0

     total cpu time spent up to now is       45.9 secs

     total energy              =   -5824.82925422 Ry
     estimated scf accuracy    <       0.14875959 Ry

     iteration # 44     ecut=    50.00 Ry     beta= 0.70
     Davidson diagonalization with overlap
     ethr =  5.40E-06,  avg # of iterations =  1.0

     total cpu time spent up to now is       46.4 secs

     total energy              =   -5824.82848296 Ry
     estimated scf accuracy    <       0.14377511 Ry

     iteration # 45     ecut=    50.00 Ry     beta= 0.70
     Davidson diagonalization with overlap
     ethr =  5.40E-06,  avg # of iterations =  1.0

     total cpu time spent up to now is       46.9 secs

     total energy              =   -5824.82638480 Ry
     estimated scf accuracy    <       0.13994828 Ry

     iteration # 46     ecut=    50.00 Ry     beta= 0.70
     Davidson diagonalization with overlap
     ethr =  5.40E-06,  avg # of iterations =  1.0

     total cpu time spent up to now is       47.5 secs

     total energy              =   -5824.82411651 Ry
     estimated scf accuracy    <       0.13250066 Ry

     iteration # 47     ecut=    50.00 Ry     beta= 0.70
     Davidson diagonalization with overlap
     ethr =  5.40E-06,  avg # of iterations =  1.0

     total cpu time spent up to now is       48.0 secs

     total energy              =   -5824.77154772 Ry
     estimated scf accuracy    <       0.12474319 Ry

     iteration # 48     ecut=    50.00 Ry     beta= 0.70
     Davidson diagonalization with overlap
     ethr =  5.40E-06,  avg # of iterations = 14.0

     total cpu time spent up to now is       49.1 secs

     total energy              =   -5824.90256204 Ry
     estimated scf accuracy    <       0.86620204 Ry

     iteration # 49     ecut=    50.00 Ry     beta= 0.70
     Davidson diagonalization with overlap
     ethr =  5.40E-06,  avg # of iterations =  7.0

     total cpu time spent up to now is       49.8 secs

     total energy              =   -5824.86061741 Ry
     estimated scf accuracy    <       0.57455673 Ry

     iteration # 50     ecut=    50.00 Ry     beta= 0.70
     Davidson diagonalization with overlap
     ethr =  5.40E-06,  avg # of iterations =  7.0

     total cpu time spent up to now is       50.5 secs

     total energy              =   -5824.82199288 Ry
     estimated scf accuracy    <       0.35464161 Ry

     iteration # 51     ecut=    50.00 Ry     beta= 0.70
     Davidson diagonalization with overlap
     ethr =  5.40E-06,  avg # of iterations = 14.0

     total cpu time spent up to now is       51.5 secs

     total energy              =   -5824.82961555 Ry
     estimated scf accuracy    <       0.17701940 Ry

     iteration # 52     ecut=    50.00 Ry     beta= 0.70
     Davidson diagonalization with overlap
     ethr =  5.40E-06,  avg # of iterations = 16.0

     total cpu time spent up to now is       52.5 secs

     total energy              =   -5824.84053411 Ry
     estimated scf accuracy    <       0.18592882 Ry

     iteration # 53     ecut=    50.00 Ry     beta= 0.70
     Davidson diagonalization with overlap
     ethr =  5.40E-06,  avg # of iterations =  1.0

     total cpu time spent up to now is       53.1 secs

     total energy              =   -5824.83960540 Ry
     estimated scf accuracy    <       0.19327860 Ry

     iteration # 54     ecut=    50.00 Ry     beta= 0.70
     Davidson diagonalization with overlap
     ethr =  5.40E-06,  avg # of iterations =  1.0

     total cpu time spent up to now is       53.6 secs

     total energy              =   -5824.84059211 Ry
     estimated scf accuracy    <       0.19115039 Ry

     iteration # 55     ecut=    50.00 Ry     beta= 0.70
     Davidson diagonalization with overlap
     ethr =  5.40E-06,  avg # of iterations =  1.0

     total cpu time spent up to now is       54.1 secs

     total energy              =   -5824.84379319 Ry
     estimated scf accuracy    <       0.19492307 Ry

     iteration # 56     ecut=    50.00 Ry     beta= 0.70
     Davidson diagonalization with overlap
     ethr =  5.40E-06,  avg # of iterations =  3.0

     total cpu time spent up to now is       54.8 secs

     total energy              =   -5824.83407344 Ry
     estimated scf accuracy    <       0.21072963 Ry

     iteration # 57     ecut=    50.00 Ry     beta= 0.70
     Davidson diagonalization with overlap
     ethr =  5.40E-06,  avg # of iterations = 13.0

     total cpu time spent up to now is       55.7 secs

     total energy              =   -5824.84445289 Ry
     estimated scf accuracy    <       0.16745934 Ry

     iteration # 58     ecut=    50.00 Ry     beta= 0.70
     Davidson diagonalization with overlap
     ethr =  5.40E-06,  avg # of iterations = 13.0

     total cpu time spent up to now is       56.6 secs

     total energy              =   -5824.81644809 Ry
     estimated scf accuracy    <       0.24015290 Ry

     iteration # 59     ecut=    50.00 Ry     beta= 0.70
     Davidson diagonalization with overlap
     ethr =  5.40E-06,  avg # of iterations = 15.0

     total cpu time spent up to now is       57.6 secs

     total energy              =   -5824.83210407 Ry
     estimated scf accuracy    <       0.20938371 Ry

     iteration # 60     ecut=    50.00 Ry     beta= 0.70
     Davidson diagonalization with overlap
     ethr =  5.40E-06,  avg # of iterations = 14.0

     total cpu time spent up to now is       58.6 secs

     total energy              =   -5824.83241147 Ry
     estimated scf accuracy    <       0.15906759 Ry

     iteration # 61     ecut=    50.00 Ry     beta= 0.70
     Davidson diagonalization with overlap
     ethr =  5.40E-06,  avg # of iterations =  1.0

     total cpu time spent up to now is       59.1 secs

     total energy              =   -5824.83198486 Ry
     estimated scf accuracy    <       0.15520067 Ry

     iteration # 62     ecut=    50.00 Ry     beta= 0.70
     Davidson diagonalization with overlap
     ethr =  5.40E-06,  avg # of iterations =  1.0

     total cpu time spent up to now is       59.6 secs

     total energy              =   -5824.83337572 Ry
     estimated scf accuracy    <       0.15202504 Ry

     iteration # 63     ecut=    50.00 Ry     beta= 0.70
     Davidson diagonalization with overlap
     ethr =  5.40E-06,  avg # of iterations =  2.0

     total cpu time spent up to now is       60.2 secs

     total energy              =   -5824.83429727 Ry
     estimated scf accuracy    <       0.15522612 Ry

     iteration # 64     ecut=    50.00 Ry     beta= 0.70
     Davidson diagonalization with overlap
     ethr =  5.40E-06,  avg # of iterations = 15.0

     total cpu time spent up to now is       61.2 secs

     total energy              =   -5824.83100036 Ry
     estimated scf accuracy    <       0.17204680 Ry

     iteration # 65     ecut=    50.00 Ry     beta= 0.70
     Davidson diagonalization with overlap
     ethr =  5.40E-06,  avg # of iterations =  2.0

     total cpu time spent up to now is       61.8 secs

     total energy              =   -5824.83380575 Ry
     estimated scf accuracy    <       0.15026188 Ry

     iteration # 66     ecut=    50.00 Ry     beta= 0.70
     Davidson diagonalization with overlap
     ethr =  5.40E-06,  avg # of iterations = 15.0

     total cpu time spent up to now is       62.7 secs

     total energy              =   -5824.83408916 Ry
     estimated scf accuracy    <       0.16894041 Ry

     iteration # 67     ecut=    50.00 Ry     beta= 0.70
     Davidson diagonalization with overlap
     ethr =  5.40E-06,  avg # of iterations = 13.0

     total cpu time spent up to now is       63.7 secs

     total energy              =   -5824.83782553 Ry
     estimated scf accuracy    <       0.18872645 Ry

     iteration # 68     ecut=    50.00 Ry     beta= 0.70
     Davidson diagonalization with overlap
     ethr =  5.40E-06,  avg # of iterations =  1.0

     total cpu time spent up to now is       64.2 secs

     total energy              =   -5824.83569995 Ry
     estimated scf accuracy    <       0.18340895 Ry

     iteration # 69     ecut=    50.00 Ry     beta= 0.70
     Davidson diagonalization with overlap
     ethr =  5.40E-06,  avg # of iterations =  2.0

     total cpu time spent up to now is       64.8 secs

     total energy              =   -5824.83633589 Ry
     estimated scf accuracy    <       0.17366221 Ry

     iteration # 70     ecut=    50.00 Ry     beta= 0.70
     Davidson diagonalization with overlap
     ethr =  5.40E-06,  avg # of iterations =  1.0

     total cpu time spent up to now is       65.3 secs

     total energy              =   -5824.83339871 Ry
     estimated scf accuracy    <       0.17452310 Ry

     iteration # 71     ecut=    50.00 Ry     beta= 0.70
     Davidson diagonalization with overlap
     ethr =  5.40E-06,  avg # of iterations =  2.0

     total cpu time spent up to now is       65.9 secs

     total energy              =   -5824.82963275 Ry
     estimated scf accuracy    <       0.16246962 Ry

     iteration # 72     ecut=    50.00 Ry     beta= 0.70
     Davidson diagonalization with overlap
     ethr =  5.40E-06,  avg # of iterations = 15.0

     total cpu time spent up to now is       66.9 secs

     total energy              =   -5824.83832285 Ry
     estimated scf accuracy    <       0.16098642 Ry

     iteration # 73     ecut=    50.00 Ry     beta= 0.70
     Davidson diagonalization with overlap
     ethr =  5.40E-06,  avg # of iterations =  1.0

     total cpu time spent up to now is       67.4 secs

     total energy              =   -5824.84054822 Ry
     estimated scf accuracy    <       0.16817663 Ry

     iteration # 74     ecut=    50.00 Ry     beta= 0.70
     Davidson diagonalization with overlap
     ethr =  5.40E-06,  avg # of iterations =  2.0

     total cpu time spent up to now is       68.0 secs

     total energy              =   -5824.83990650 Ry
     estimated scf accuracy    <       0.17486391 Ry

     iteration # 75     ecut=    50.00 Ry     beta= 0.70
     Davidson diagonalization with overlap
     ethr =  5.40E-06,  avg # of iterations =  1.0

     total cpu time spent up to now is       68.5 secs

     total energy              =   -5824.84715383 Ry
     estimated scf accuracy    <       0.17362255 Ry

     iteration # 76     ecut=    50.00 Ry     beta= 0.70
     Davidson diagonalization with overlap
     ethr =  5.40E-06,  avg # of iterations = 12.0

     total cpu time spent up to now is       69.4 secs

     total energy              =   -5824.84125197 Ry
     estimated scf accuracy    <       0.24697675 Ry

     iteration # 77     ecut=    50.00 Ry     beta= 0.70
     Davidson diagonalization with overlap
     ethr =  5.40E-06,  avg # of iterations =  9.0

     total cpu time spent up to now is       70.2 secs

     total energy              =   -5824.83718251 Ry
     estimated scf accuracy    <       0.19465690 Ry

     iteration # 78     ecut=    50.00 Ry     beta= 0.70
     Davidson diagonalization with overlap
     ethr =  5.40E-06,  avg # of iterations =  1.0

     total cpu time spent up to now is       70.7 secs

     total energy              =   -5824.83723755 Ry
     estimated scf accuracy    <       0.17862518 Ry

     iteration # 79     ecut=    50.00 Ry     beta= 0.70
     Davidson diagonalization with overlap
     ethr =  5.40E-06,  avg # of iterations =  1.0

     total cpu time spent up to now is       71.2 secs

     total energy              =   -5824.83746774 Ry
     estimated scf accuracy    <       0.17801393 Ry

     iteration # 80     ecut=    50.00 Ry     beta= 0.70
     Davidson diagonalization with overlap
     ethr =  5.40E-06,  avg # of iterations =  1.0

     total cpu time spent up to now is       71.8 secs

     total energy              =   -5824.75117756 Ry
     estimated scf accuracy    <       0.17675408 Ry

     iteration # 81     ecut=    50.00 Ry     beta= 0.70
     Davidson diagonalization with overlap
     ethr =  5.40E-06,  avg # of iterations = 13.0

     total cpu time spent up to now is       73.0 secs

     total energy              =   -5824.85993466 Ry
     estimated scf accuracy    <       0.92290050 Ry

     iteration # 82     ecut=    50.00 Ry     beta= 0.70
     Davidson diagonalization with overlap
     ethr =  5.40E-06,  avg # of iterations =  8.0

     total cpu time spent up to now is       73.8 secs

     total energy              =   -5824.84622354 Ry
     estimated scf accuracy    <       0.39951209 Ry

     iteration # 83     ecut=    50.00 Ry     beta= 0.70
     Davidson diagonalization with overlap
     ethr =  5.40E-06,  avg # of iterations =  7.0

     total cpu time spent up to now is       74.5 secs

     total energy              =   -5824.83655928 Ry
     estimated scf accuracy    <       0.25394197 Ry

     iteration # 84     ecut=    50.00 Ry     beta= 0.70
     Davidson diagonalization with overlap
     ethr =  5.40E-06,  avg # of iterations =  6.0

     total cpu time spent up to now is       75.2 secs

     total energy              =   -5824.82828579 Ry
     estimated scf accuracy    <       0.18968845 Ry

     iteration # 85     ecut=    50.00 Ry     beta= 0.70
     Davidson diagonalization with overlap
     ethr =  5.40E-06,  avg # of iterations = 14.0

     total cpu time spent up to now is       76.1 secs

     total energy              =   -5824.83358218 Ry
     estimated scf accuracy    <       0.15570081 Ry

     iteration # 86     ecut=    50.00 Ry     beta= 0.70
     Davidson diagonalization with overlap
     ethr =  5.40E-06,  avg # of iterations =  1.0

     total cpu time spent up to now is       76.7 secs

     total energy              =   -5824.82862999 Ry
     estimated scf accuracy    <       0.15132615 Ry

     iteration # 87     ecut=    50.00 Ry     beta= 0.70
     Davidson diagonalization with overlap
     ethr =  5.40E-06,  avg # of iterations =  2.0

     total cpu time spent up to now is       77.2 secs

     total energy              =   -5824.83062129 Ry
     estimated scf accuracy    <       0.13835890 Ry

     iteration # 88     ecut=    50.00 Ry     beta= 0.70
     Davidson diagonalization with overlap
     ethr =  5.40E-06,  avg # of iterations =  1.0

     total cpu time spent up to now is       77.8 secs

     total energy              =   -5824.83014113 Ry
     estimated scf accuracy    <       0.14299553 Ry

     iteration # 89     ecut=    50.00 Ry     beta= 0.70
     Davidson diagonalization with overlap
     ethr =  5.40E-06,  avg # of iterations =  1.0

     total cpu time spent up to now is       78.3 secs

     total energy              =   -5824.90299565 Ry
     estimated scf accuracy    <       0.14198322 Ry

     iteration # 90     ecut=    50.00 Ry     beta= 0.70
     Davidson diagonalization with overlap
     ethr =  5.40E-06,  avg # of iterations = 11.0

     total cpu time spent up to now is       79.3 secs

     total energy              =   -5824.82248399 Ry
     estimated scf accuracy    <       0.57723737 Ry

     iteration # 91     ecut=    50.00 Ry     beta= 0.70
     Davidson diagonalization with overlap
     ethr =  5.40E-06,  avg # of iterations =  8.0

     total cpu time spent up to now is       80.1 secs

     total energy              =   -5824.83790563 Ry
     estimated scf accuracy    <       0.18697056 Ry

     iteration # 92     ecut=    50.00 Ry     beta= 0.70
     Davidson diagonalization with overlap
     ethr =  5.40E-06,  avg # of iterations =  1.0

     total cpu time spent up to now is       80.6 secs

     total energy              =   -5824.83393257 Ry
     estimated scf accuracy    <       0.18055292 Ry

     iteration # 93     ecut=    50.00 Ry     beta= 0.70
     Davidson diagonalization with overlap
     ethr =  5.40E-06,  avg # of iterations =  2.0

     total cpu time spent up to now is       81.2 secs

     total energy              =   -5824.75336023 Ry
     estimated scf accuracy    <       0.16486619 Ry

     iteration # 94     ecut=    50.00 Ry     beta= 0.70
     Davidson diagonalization with overlap
     ethr =  5.40E-06,  avg # of iterations = 13.0

     total cpu time spent up to now is       82.4 secs

     total energy              =   -5824.89781209 Ry
     estimated scf accuracy    <       0.94084338 Ry

     iteration # 95     ecut=    50.00 Ry     beta= 0.70
     Davidson diagonalization with overlap
     ethr =  5.40E-06,  avg # of iterations =  7.0

     total cpu time spent up to now is       83.1 secs

     total energy              =   -5824.82988393 Ry
     estimated scf accuracy    <       0.55205902 Ry

     iteration # 96     ecut=    50.00 Ry     beta= 0.70
     Davidson diagonalization with overlap
     ethr =  5.40E-06,  avg # of iterations =  8.0

     total cpu time spent up to now is       83.9 secs

     total energy              =   -5824.83588672 Ry
     estimated scf accuracy    <       0.21605948 Ry

     iteration # 97     ecut=    50.00 Ry     beta= 0.70
     Davidson diagonalization with overlap
     ethr =  5.40E-06,  avg # of iterations =  2.0

     total cpu time spent up to now is       84.4 secs

     total energy              =   -5824.83498321 Ry
     estimated scf accuracy    <       0.19306605 Ry

     iteration # 98     ecut=    50.00 Ry     beta= 0.70
     Davidson diagonalization with overlap
     ethr =  5.40E-06,  avg # of iterations =  2.0

     total cpu time spent up to now is       85.0 secs

     total energy              =   -5824.83713458 Ry
     estimated scf accuracy    <       0.18414653 Ry

     iteration # 99     ecut=    50.00 Ry     beta= 0.70
     Davidson diagonalization with overlap
     ethr =  5.40E-06,  avg # of iterations =  2.0

     total cpu time spent up to now is       85.6 secs

     total energy              =   -5824.82014625 Ry
     estimated scf accuracy    <       0.18488831 Ry

     iteration #100     ecut=    50.00 Ry     beta= 0.70
     Davidson diagonalization with overlap
     ethr =  5.40E-06,  avg # of iterations = 14.0

     total cpu time spent up to now is       86.5 secs

     total energy              =   -5824.83833955 Ry
     estimated scf accuracy    <       0.18806249 Ry

     End of self-consistent calculation

     convergence NOT achieved after 100 iterations: stopping

     Writing config to output data dir ./nv_diamond.save/ :
     XML data file, charge density distributed wavefunctions
 
     init_run     :      0.75s CPU      9.98s WALL (       1 calls)
     electrons    :     73.21s CPU     76.40s WALL (       1 calls)

     Called by init_run:
     wfcinit      :      0.38s CPU      9.10s WALL (       1 calls)
     potinit      :      0.03s CPU      0.09s WALL (       1 calls)
     hinit0       :      0.26s CPU      0.32s WALL (       1 calls)

     Called by electrons:
     c_bands      :     53.23s CPU     55.99s WALL (     100 calls)
     sum_band     :     16.89s CPU     17.02s WALL (     100 calls)
     v_of_rho     :      0.79s CPU      0.87s WALL (     101 calls)
     mix_rho      :      1.88s CPU      2.12s WALL (     100 calls)

     Called by c_bands:
     init_us_2    :      2.58s CPU      2.58s WALL (     201 calls)
     regterg      :     46.78s CPU     48.97s WALL (     100 calls)

     Called by *egterg:
     rdiaghg      :     20.03s CPU     27.07s WALL (     727 calls)
                                       27.06s GPU  (     727 calls)
     h_psi        :     18.94s CPU     21.95s WALL (     728 calls)
     g_psi        :      0.04s CPU      0.04s WALL (     627 calls)

     Called by h_psi:
     h_psi:calbec :      2.17s CPU      4.63s WALL (     728 calls)
     vloc_psi     :     12.68s CPU     12.90s WALL (     728 calls)
                                       12.89s GPU  (     728 calls)
     add_vuspsi   :      4.01s CPU      4.37s WALL (     728 calls)

     General routines
     calbec       :      2.17s CPU      4.62s WALL (     728 calls)
     fft          :      0.21s CPU      0.33s WALL (     808 calls)
                                        0.32s GPU  (     808 calls)
     ffts         :      0.03s CPU      0.05s WALL (     100 calls)
                                        0.05s GPU  (     100 calls)
     fftw         :     18.88s CPU     21.27s WALL (   65966 calls)
                                       20.42s GPU  (   65966 calls)
     davcio       :      0.00s CPU      0.08s WALL (      19 calls)
 
     Parallel routines
 
     PWSCF        :   1m14.15s CPU   1m26.78s WALL

 
   This run was terminated on:   5:12:11  12Feb2026            

=------------------------------------------------------------------------------=
   JOB DONE.
=------------------------------------------------------------------------------=
