
     Program PWSCF v.7.4.1 starts on 30Jan2026 at  7:30:59 

     This program is part of the open-source Quantum ESPRESSO suite
     for quantum simulation of materials; please cite
         "P. Giannozzi et al., J. Phys.:Condens. Matter 21 395502 (2009);
         "P. Giannozzi et al., J. Phys.:Condens. Matter 29 465901 (2017);
         "P. Giannozzi et al., J. Chem. Phys. 152 154105 (2020);
          URL http://www.quantum-espresso.org", 
     in publications or presentations arising from this work. More details at
     http://www.quantum-espresso.org/quote

     Parallel version (MPI), running on     1 processors

     MPI processes distributed on     1 nodes
     26279 MiB available memory on the printing compute node when the environment starts
 
     Reading input from pw.in

     Current dimensions of program PWSCF are:
     Max number of different atomic species (ntypx) = 10
     Max number of k-points (npk) =  40000
     Max angular momentum in pseudopotentials (lmaxx) =  4

     gamma-point specific algorithms are used
     Found identity + (  0.0000  0.0000  0.3333) symmetry
     This is a supercell, fractional translations are disabled
     Message from routine setup:
     using ibrav=0 with symmetry is DISCOURAGED, use correct ibrav instead
 
     Subspace diagonalization in iterative solution of the eigenvalue problem:
     a serial algorithm will be used

 
     G-vector sticks info
     --------------------
     sticks:   dense  smooth     PW     G-vecs:    dense   smooth      PW
     Sum       25481   25481   6369              6485417  6485417  810683
 
     Using Slab Decomposition
 


     bravais-lattice index     =            0
     lattice parameter (alat)  =      20.0000  a.u.
     unit-cell volume          =   48000.0000 (a.u.)^3
     number of atoms/cell      =           30
     number of atomic types    =            2
     number of electrons       =        48.00
     number of Kohn-Sham states=          200
     kinetic-energy cutoff     =     100.0000  Ry
     charge density cutoff     =     400.0000  Ry
     scf convergence threshold =      1.0E-06
     mixing beta               =       0.7000
     number of iterations used =            8  plain     mixing
     Exchange-correlation= PBE
                           (   1   4   3   4   0   0   0)

     GPU acceleration is ACTIVE.  1 visible GPUs per MPI rank

     Assuming isolated system, Martyna-Tuckerman method


     celldm(1)=  20.000000  celldm(2)=   0.000000  celldm(3)=   0.000000
     celldm(4)=   0.000000  celldm(5)=   0.000000  celldm(6)=   0.000000

     crystal axes: (cart. coord. in units of alat)
               a(1) = (   1.000000   0.000000   0.000000 )  
               a(2) = (   0.000000   2.000000   0.000000 )  
               a(3) = (   0.000000   0.000000   3.000000 )  

     reciprocal axes: (cart. coord. in units 2 pi/alat)
               b(1) = (  1.000000  0.000000  0.000000 )  
               b(2) = (  0.000000  0.500000  0.000000 )  
               b(3) = (  0.000000  0.000000  0.333333 )  


     PseudoPot. # 1 for Si read from file:
     ./Si_ONCV_PBE-1.2.upf
     MD5 check sum: 7f029a58b69e3aa87b46a36c608bf45e
     Pseudo is Norm-conserving, Zval =  4.0
     Generated using ONCVPSP code by D. R. Hamann
     Using radial grid of  602 points,  4 beta functions with: 
                l(1) =   0
                l(2) =   0
                l(3) =   1
                l(4) =   1

     PseudoPot. # 2 for H  read from file:
     ./H_ONCV_PBE-1.2.upf
     MD5 check sum: bf21e08b90ac4ce7d0149ac4e8138190
     Pseudo is Norm-conserving, Zval =  1.0
     Generated using ONCVPSP code by D. R. Hamann
     Using radial grid of  602 points,  2 beta functions with: 
                l(1) =   0
                l(2) =   0

     atomic species   valence    mass     pseudopotential
     Si                4.00    28.08550     Si( 1.00)
     H                 1.00     1.00794     H ( 1.00)

      4 Sym. Ops. (no inversion) found



   Cartesian axes

     site n.     atom                  positions (alat units)
         1        Si     tau(   1) = (   0.5000000   0.5000000   0.5000000  )
         2        H      tau(   2) = (   0.5807290   0.5807290   0.5807290  )
         3        H      tau(   3) = (   0.4192709   0.4192709   0.5807290  )
         4        H      tau(   4) = (   0.4192709   0.5807290   0.4192709  )
         5        H      tau(   5) = (   0.5807290   0.4192709   0.4192709  )
         6        Si     tau(   6) = (   0.5000000   0.5000000   1.5000000  )
         7        H      tau(   7) = (   0.5807290   0.5807290   1.5807290  )
         8        H      tau(   8) = (   0.4192709   0.4192709   1.5807290  )
         9        H      tau(   9) = (   0.4192709   0.5807290   1.4192709  )
        10        H      tau(  10) = (   0.5807290   0.4192709   1.4192709  )
        11        Si     tau(  11) = (   0.5000000   0.5000000   2.5000000  )
        12        H      tau(  12) = (   0.5807290   0.5807290   2.5807290  )
        13        H      tau(  13) = (   0.4192709   0.4192709   2.5807290  )
        14        H      tau(  14) = (   0.4192709   0.5807290   2.4192709  )
        15        H      tau(  15) = (   0.5807290   0.4192709   2.4192709  )
        16        Si     tau(  16) = (   0.5000000   1.5000000   0.5000000  )
        17        H      tau(  17) = (   0.5807290   1.5807290   0.5807290  )
        18        H      tau(  18) = (   0.4192709   1.4192709   0.5807290  )
        19        H      tau(  19) = (   0.4192709   1.5807290   0.4192709  )
        20        H      tau(  20) = (   0.5807290   1.4192709   0.4192709  )
        21        Si     tau(  21) = (   0.5000000   1.5000000   1.5000000  )
        22        H      tau(  22) = (   0.5807290   1.5807290   1.5807290  )
        23        H      tau(  23) = (   0.4192709   1.4192709   1.5807290  )
        24        H      tau(  24) = (   0.4192709   1.5807290   1.4192709  )
        25        H      tau(  25) = (   0.5807290   1.4192709   1.4192709  )
        26        Si     tau(  26) = (   0.5000000   1.5000000   2.5000000  )
        27        H      tau(  27) = (   0.5807290   1.5807290   2.5807290  )
        28        H      tau(  28) = (   0.4192709   1.4192709   2.5807290  )
        29        H      tau(  29) = (   0.4192709   1.5807290   2.4192709  )
        30        H      tau(  30) = (   0.5807290   1.4192709   2.4192709  )

     number of k points=     1
                       cart. coord. in units 2pi/alat
        k(    1) = (   0.0000000   0.0000000   0.0000000), wk =   2.0000000

     Dense  grid:  3242709 G-vectors     FFT dimensions: ( 128, 256, 384)

     Estimated max dynamical RAM per process >       8.88 GB

     Initial potential from superposition of free atoms

     starting charge      47.6714, renormalised to      48.0000

     negative rho (up, down):  4.239E-03 0.000E+00
     Starting wfcs are random

     total cpu time spent up to now is       11.2 secs

     Self-consistent Calculation

     iteration #  1     ecut=   100.00 Ry     beta= 0.70
     Davidson diagonalization with overlap
     ethr =  1.00E-02,  avg # of iterations = 14.0

     negative rho (up, down):  3.692E-07 0.000E+00

     total cpu time spent up to now is       94.6 secs

     total energy              =     -75.28859218 Ry
     estimated scf accuracy    <       1.45481088 Ry

     iteration #  2     ecut=   100.00 Ry     beta= 0.70
     Davidson diagonalization with overlap
     ethr =  3.03E-03,  avg # of iterations = 12.0

     total cpu time spent up to now is      127.1 secs

     total energy              =     -75.37956132 Ry
     estimated scf accuracy    <       0.04244954 Ry

     iteration #  3     ecut=   100.00 Ry     beta= 0.70
     Davidson diagonalization with overlap
     c_bands:  4 eigenvalues not converged
     ethr =  8.84E-05,  avg # of iterations = 20.0

     total cpu time spent up to now is      232.3 secs

     total energy              =     -75.40358941 Ry
     estimated scf accuracy    <       0.00132852 Ry

     iteration #  4     ecut=   100.00 Ry     beta= 0.70
     Davidson diagonalization with overlap
     c_bands:  1 eigenvalues not converged
     ethr =  2.77E-06,  avg # of iterations = 60.0

     total cpu time spent up to now is      337.8 secs

     total energy              =     -75.40536984 Ry
     estimated scf accuracy    <       0.00027023 Ry

     iteration #  5     ecut=   100.00 Ry     beta= 0.70
     Davidson diagonalization with overlap
     c_bands:  2 eigenvalues not converged
     ethr =  5.63E-07,  avg # of iterations = 20.0

     negative rho (up, down):  1.734E-05 0.000E+00

     total cpu time spent up to now is      371.6 secs

     total energy              =     -75.40544673 Ry
     estimated scf accuracy    <       0.00000702 Ry

     iteration #  6     ecut=   100.00 Ry     beta= 0.70
     Davidson diagonalization with overlap
     c_bands:  5 eigenvalues not converged
     ethr =  1.46E-08,  avg # of iterations = 60.0

     negative rho (up, down):  2.570E-06 0.000E+00

     total cpu time spent up to now is      545.0 secs

     total energy              =     -75.40546137 Ry
     estimated scf accuracy    <       0.00000155 Ry

     iteration #  7     ecut=   100.00 Ry     beta= 0.70
     Davidson diagonalization with overlap
     c_bands:  3 eigenvalues not converged
     ethr =  3.22E-09,  avg # of iterations = 40.0

     total cpu time spent up to now is      661.6 secs

     End of self-consistent calculation

          k = 0.0000 0.0000 0.0000 (405342 PWs)   bands (ev):

   -13.2960 -13.2959 -13.2959 -13.2959 -13.2959 -13.2959  -8.3716  -8.3715
    -8.3715  -8.3715  -8.3715  -8.3714  -8.3231  -8.3231  -8.3231  -8.3231
    -8.3231  -8.3230  -8.3226  -8.3226  -8.3226  -8.3226  -8.3225  -8.3225
    -0.5451  -0.4480  -0.4480  -0.3597  -0.2680  -0.2680  -0.0241   0.0060
     0.0060   0.0691   0.0691   0.0700   0.0700   0.0772   0.0772   0.1070
     0.1076   0.1161   0.1161   0.1384   0.1386   0.1594   0.1595   0.1771
     0.3687   0.4255   0.4255   0.4437   0.4437   0.6372   0.6372   0.8520
     0.9382   0.9384   0.9438   0.9601   0.9601   0.9604   0.9645   0.9911
     1.0600   1.0602   1.0602   1.0708   1.0708   1.0959   1.1523   1.1678
     1.1875   1.1875   1.2501   1.2717   1.2717   1.4145   1.4146   1.5403
     1.5403   1.5537   1.6583   1.6584   1.7425   1.7884   1.7886   1.7902
     1.8180   1.8181   1.8351   1.8634   1.8635   1.8836   1.9291   1.9293
     1.9337   1.9338   1.9631   1.9632   2.0471   2.0471   2.2581   2.2581
     2.2621   2.2726   2.2726   2.3547   2.3919   2.3974   2.4114   2.4117
     2.4143   2.4389   2.4643   2.4643   2.5202   2.5471   2.5473   2.5737
     2.5815   2.5929   2.5930   2.6100   2.6520   2.6520   2.6529   2.6529
     2.6578   2.7323   2.7596   2.7596   2.8219   2.8362   2.8685   2.8685
     2.8722   2.8986   2.9430   2.9431   2.9810   2.9810   3.0181   3.0279
     3.0370   3.0788   3.0788   3.1502   3.1790   3.1999   3.2000   3.2088
     3.2088   3.2704   3.2720   3.2731   3.2732   3.3280   3.3282   3.3377
     3.4191   3.4193   3.5234   3.5390   3.5391   3.5402   3.5403   3.5537
     3.5538   3.5703   3.5703   3.6587   3.6588   3.6863   3.6931   3.6931
     3.8216   3.8217   3.8586   3.8726   3.8788   3.8888   3.8889   3.9063
     3.9063   3.9177   3.9395   4.0843   4.0844   4.1092   4.1093   4.1096
     4.1172   4.1211   4.1424   4.1879   4.1879   4.1907   4.1907   4.2102

     highest occupied, lowest unoccupied level (ev):    -8.3225   -0.5451

!    total energy              =     -75.40546182 Ry
     estimated scf accuracy    <       0.00000002 Ry

     The total energy is the sum of the following terms:
     one-electron contribution =    -437.80848653 Ry
     hartree contribution      =     221.92448477 Ry
     xc contribution           =     -30.86202660 Ry
     ewald contribution        =     171.34056653 Ry

     convergence has been achieved in   7 iterations

     Writing all to output data dir ./test.save/ :
     XML data file, charge density, pseudopotentials, collected wavefunctions
 
     init_run     :      9.44s CPU     11.16s WALL (       1 calls)
     electrons    :    646.33s CPU    651.03s WALL (       1 calls)

     Called by init_run:
     wfcinit      :      4.92s CPU      4.94s WALL (       1 calls)
     potinit      :      0.91s CPU      1.32s WALL (       1 calls)
     hinit0       :      2.33s CPU      2.72s WALL (       1 calls)

     Called by electrons:
     c_bands      :    624.48s CPU    625.47s WALL (       7 calls)
     sum_band     :     12.59s CPU     12.60s WALL (       7 calls)
     v_of_rho     :      5.10s CPU      6.98s WALL (       8 calls)
     mix_rho      :      3.35s CPU      4.84s WALL (       7 calls)

     Called by c_bands:
     init_us_2    :      0.29s CPU      0.30s WALL (      15 calls)
     regterg      :    622.51s CPU    623.47s WALL (      12 calls)

     Called by *egterg:
     rdiaghg      :      3.88s CPU      4.25s WALL (     238 calls)
                                        4.25s GPU  (     238 calls)
     h_psi        :    289.29s CPU    289.66s WALL (     239 calls)
                                      289.66s GPU  (     239 calls)
     g_psi        :      0.00s CPU      2.35s WALL (     226 calls)
                                        2.35s GPU  (     226 calls)

     Called by h_psi:
     h_psi:calbec :      0.31s CPU     23.15s WALL (     239 calls)
                                       23.15s GPU  (     239 calls)
     vloc_psi     :    250.35s CPU    250.72s WALL (     239 calls)
                                      250.72s GPU  (     239 calls)
     add_vuspsi   :      0.05s CPU     14.31s WALL (     239 calls)
                                       14.31s GPU  (     239 calls)

     General routines
     calbec       :      0.31s CPU      0.32s WALL (     239 calls)
     fft          :      0.00s CPU      0.81s WALL (      64 calls)
                                        0.81s GPU  (      64 calls)
     ffts         :      0.00s CPU      0.09s WALL (       7 calls)
                                        0.09s GPU  (       7 calls)
     fftw         :      0.05s CPU    216.72s WALL (    2114 calls)
                                      216.71s GPU  (    2114 calls)
 
     Parallel routines
 
     PWSCF        :  10m56.16s CPU  11m17.24s WALL

 
   This run was terminated on:   7:42:16  30Jan2026            

=------------------------------------------------------------------------------=
   JOB DONE.
=------------------------------------------------------------------------------=
