
     Program PWSCF v.7.4.1 starts on 30Jan2026 at  5:55:43 

     This program is part of the open-source Quantum ESPRESSO suite
     for quantum simulation of materials; please cite
         "P. Giannozzi et al., J. Phys.:Condens. Matter 21 395502 (2009);
         "P. Giannozzi et al., J. Phys.:Condens. Matter 29 465901 (2017);
         "P. Giannozzi et al., J. Chem. Phys. 152 154105 (2020);
          URL http://www.quantum-espresso.org", 
     in publications or presentations arising from this work. More details at
     http://www.quantum-espresso.org/quote

     Parallel version (MPI), running on     1 processors

     MPI processes distributed on     1 nodes
     27669 MiB available memory on the printing compute node when the environment starts
 
     Reading input from pw.in

     Current dimensions of program PWSCF are:
     Max number of different atomic species (ntypx) = 10
     Max number of k-points (npk) =  40000
     Max angular momentum in pseudopotentials (lmaxx) =  4

     gamma-point specific algorithms are used
     Found identity + (  0.0000 -0.5000  0.0000) symmetry
     This is a supercell, fractional translations are disabled
     Message from routine setup:
     using ibrav=0 with symmetry is DISCOURAGED, use correct ibrav instead
 
     Subspace diagonalization in iterative solution of the eigenvalue problem:
     a serial algorithm will be used

 
     G-vector sticks info
     --------------------
     sticks:   dense  smooth     PW     G-vecs:    dense   smooth      PW
     Sum       50949   50949  12745              4323459  4323459  540383
 
     Using Slab Decomposition
 


     bravais-lattice index     =            0
     lattice parameter (alat)  =      40.0000  a.u.
     unit-cell volume          =   32000.0000 (a.u.)^3
     number of atoms/cell      =           20
     number of atomic types    =            2
     number of electrons       =        32.00
     number of Kohn-Sham states=          200
     kinetic-energy cutoff     =     100.0000  Ry
     charge density cutoff     =     400.0000  Ry
     scf convergence threshold =      1.0E-06
     mixing beta               =       0.7000
     number of iterations used =            8  plain     mixing
     Exchange-correlation= PBE
                           (   1   4   3   4   0   0   0)

     GPU acceleration is ACTIVE.  1 visible GPUs per MPI rank

     Assuming isolated system, Martyna-Tuckerman method


     celldm(1)=  40.000000  celldm(2)=   0.000000  celldm(3)=   0.000000
     celldm(4)=   0.000000  celldm(5)=   0.000000  celldm(6)=   0.000000

     crystal axes: (cart. coord. in units of alat)
               a(1) = (   1.000000   0.000000   0.000000 )  
               a(2) = (   0.000000   1.000000   0.000000 )  
               a(3) = (   0.000000   0.000000   0.500000 )  

     reciprocal axes: (cart. coord. in units 2 pi/alat)
               b(1) = (  1.000000  0.000000  0.000000 )  
               b(2) = (  0.000000  1.000000  0.000000 )  
               b(3) = (  0.000000  0.000000  2.000000 )  


     PseudoPot. # 1 for Si read from file:
     ./Si_ONCV_PBE-1.2.upf
     MD5 check sum: 7f029a58b69e3aa87b46a36c608bf45e
     Pseudo is Norm-conserving, Zval =  4.0
     Generated using ONCVPSP code by D. R. Hamann
     Using radial grid of  602 points,  4 beta functions with: 
                l(1) =   0
                l(2) =   0
                l(3) =   1
                l(4) =   1

     PseudoPot. # 2 for H  read from file:
     ./H_ONCV_PBE-1.2.upf
     MD5 check sum: bf21e08b90ac4ce7d0149ac4e8138190
     Pseudo is Norm-conserving, Zval =  1.0
     Generated using ONCVPSP code by D. R. Hamann
     Using radial grid of  602 points,  2 beta functions with: 
                l(1) =   0
                l(2) =   0

     atomic species   valence    mass     pseudopotential
     Si                4.00    28.08550     Si( 1.00)
     H                 1.00     1.00794     H ( 1.00)

      8 Sym. Ops. (no inversion) found



   Cartesian axes

     site n.     atom                  positions (alat units)
         1        Si     tau(   1) = (   0.2500000   0.2500000   0.2500000  )
         2        H      tau(   2) = (   0.2903645   0.2903645   0.2903645  )
         3        H      tau(   3) = (   0.2096355   0.2096355   0.2903645  )
         4        H      tau(   4) = (   0.2096355   0.2903645   0.2096355  )
         5        H      tau(   5) = (   0.2903645   0.2096355   0.2096355  )
         6        Si     tau(   6) = (   0.2500000   0.7500000   0.2500000  )
         7        H      tau(   7) = (   0.2903645   0.7903645   0.2903645  )
         8        H      tau(   8) = (   0.2096355   0.7096355   0.2903645  )
         9        H      tau(   9) = (   0.2096355   0.7903645   0.2096355  )
        10        H      tau(  10) = (   0.2903645   0.7096355   0.2096355  )
        11        Si     tau(  11) = (   0.7500000   0.2500000   0.2500000  )
        12        H      tau(  12) = (   0.7903645   0.2903645   0.2903645  )
        13        H      tau(  13) = (   0.7096355   0.2096355   0.2903645  )
        14        H      tau(  14) = (   0.7096355   0.2903645   0.2096355  )
        15        H      tau(  15) = (   0.7903645   0.2096355   0.2096355  )
        16        Si     tau(  16) = (   0.7500000   0.7500000   0.2500000  )
        17        H      tau(  17) = (   0.7903645   0.7903645   0.2903645  )
        18        H      tau(  18) = (   0.7096355   0.7096355   0.2903645  )
        19        H      tau(  19) = (   0.7096355   0.7903645   0.2096355  )
        20        H      tau(  20) = (   0.7903645   0.7096355   0.2096355  )

     number of k points=     1
                       cart. coord. in units 2pi/alat
        k(    1) = (   0.0000000   0.0000000   0.0000000), wk =   2.0000000

     Dense  grid:  2161730 G-vectors     FFT dimensions: ( 256, 256, 128)

     Estimated max dynamical RAM per process >       5.79 GB

     Initial potential from superposition of free atoms

     starting charge      31.7810, renormalised to      32.0000

     negative rho (up, down):  2.826E-03 0.000E+00
     Starting wfcs are random

     total cpu time spent up to now is        7.0 secs

     Self-consistent Calculation

     iteration #  1     ecut=   100.00 Ry     beta= 0.70
     Davidson diagonalization with overlap
     ethr =  1.00E-02,  avg # of iterations = 13.0

     negative rho (up, down):  4.603E-05 0.000E+00

     total cpu time spent up to now is       51.5 secs

     total energy              =     -50.25699309 Ry
     estimated scf accuracy    <       0.98889517 Ry

     iteration #  2     ecut=   100.00 Ry     beta= 0.70
     Davidson diagonalization with overlap
     ethr =  3.09E-03,  avg # of iterations =  8.0

     negative rho (up, down):  9.470E-08 0.000E+00

     total cpu time spent up to now is       66.4 secs

     total energy              =     -50.31457346 Ry
     estimated scf accuracy    <       0.02326644 Ry

     iteration #  3     ecut=   100.00 Ry     beta= 0.70
     Davidson diagonalization with overlap
     c_bands:  2 eigenvalues not converged
     ethr =  7.27E-05,  avg # of iterations = 20.0

     total cpu time spent up to now is      113.8 secs

     total energy              =     -50.32471559 Ry
     estimated scf accuracy    <       0.00037741 Ry

     iteration #  4     ecut=   100.00 Ry     beta= 0.70
     Davidson diagonalization with overlap
     c_bands:  3 eigenvalues not converged
     ethr =  1.18E-06,  avg # of iterations = 40.0

     total cpu time spent up to now is      165.3 secs

     total energy              =     -50.32571634 Ry
     estimated scf accuracy    <       0.00003389 Ry

     iteration #  5     ecut=   100.00 Ry     beta= 0.70
     Davidson diagonalization with overlap
     c_bands:  4 eigenvalues not converged
     ethr =  1.06E-07,  avg # of iterations = 20.0

     negative rho (up, down):  2.420E-06 0.000E+00

     total cpu time spent up to now is      202.5 secs

     total energy              =     -50.32573399 Ry
     estimated scf accuracy    <       0.00000554 Ry

     iteration #  6     ecut=   100.00 Ry     beta= 0.70
     Davidson diagonalization with overlap
     c_bands:  4 eigenvalues not converged
     ethr =  1.73E-08,  avg # of iterations = 20.0

     total cpu time spent up to now is      238.8 secs

     End of self-consistent calculation

          k = 0.0000 0.0000 0.0000 (270192 PWs)   bands (ev):

   -13.1749 -13.1749 -13.1748 -13.1747  -8.2413  -8.2412  -8.2411  -8.2410
    -8.2410  -8.2409  -8.2409  -8.2409  -8.2037  -8.2037  -8.2037  -8.2036
    -0.5056  -0.3260  -0.3260  -0.1590   0.0370   0.0370   0.0751   0.1249
     0.1249   0.1773   0.1773   0.2126   0.2186   0.2186   0.2480   0.2480
     0.4072   0.4073   0.5519   0.5519   0.8228   0.8996   0.9575   0.9932
     0.9932   0.9945   1.0843   1.0843   1.1024   1.1658   1.1659   1.1762
     1.1762   1.3023   1.3024   1.3696   1.4986   1.5662   1.5665   1.6711
     1.7451   1.7453   1.8018   1.8020   1.8390   1.8391   1.8437   1.9052
     1.9052   1.9688   1.9690   2.1658   2.1935   2.1937   2.2640   2.3520
     2.3916   2.3917   2.4340   2.4635   2.5161   2.5835   2.5836   2.5875
     2.5876   2.5893   2.6855   2.6856   2.7347   2.7347   2.8282   2.8283
     2.8763   2.8800   2.8801   2.9915   2.9916   3.0058   3.0060   3.0260
     3.0262   3.0461   3.0464   3.1356   3.1357   3.1713   3.1714   3.2215
     3.2216   3.2593   3.2746   3.2757   3.2758   3.3755   3.4426   3.5532
     3.6594   3.6605   3.6606   3.8686   3.8687   3.8849   3.8991   3.8992
     3.9342   3.9343   3.9403   4.1200   4.1224   4.1225   4.1338   4.1345
     4.1349   4.1361   4.2053   4.2802   4.3002   4.3002   4.3490   4.3494
     4.3990   4.3990   4.4036   4.4039   4.4956   4.4956   4.4958   4.4959
     4.5806   4.6035   4.6040   4.6540   4.6541   4.7847   4.7940   4.8248
     4.8934   4.8936   4.9611   4.9611   5.0014   5.0604   5.0604   5.0827
     5.0828   5.0861   5.1158   5.1159   5.3325   5.3325   5.4031   5.4032
     5.4400   5.4930   5.4932   5.5056   5.5057   5.5763   5.5764   5.5765
     5.5765   5.6130   5.6131   5.6136   5.6241   5.6803   5.6924   5.6976
     5.7285   5.7285   5.7297   5.7298   5.7641   5.7697   5.7699   5.8584
     5.8586   5.8835   5.8836   5.8888   5.8890   5.8949   5.8949   5.9350

     highest occupied, lowest unoccupied level (ev):    -8.2036   -0.5056

!    total energy              =     -50.32573693 Ry
     estimated scf accuracy    <       0.00000022 Ry

     The total energy is the sum of the following terms:
     one-electron contribution =    -250.31875351 Ry
     hartree contribution      =     127.30164089 Ry
     xc contribution           =     -20.56604570 Ry
     ewald contribution        =      93.25742138 Ry

     convergence has been achieved in   6 iterations

     Writing all to output data dir ./test.save/ :
     XML data file, charge density, pseudopotentials, collected wavefunctions
 
     init_run     :      5.83s CPU      6.96s WALL (       1 calls)
     electrons    :    230.35s CPU    232.15s WALL (       1 calls)

     Called by init_run:
     wfcinit      :      2.98s CPU      3.01s WALL (       1 calls)
     potinit      :      0.64s CPU      0.95s WALL (       1 calls)
     hinit0       :      1.38s CPU      1.66s WALL (       1 calls)

     Called by electrons:
     c_bands      :    219.28s CPU    219.33s WALL (       6 calls)
     sum_band     :      6.53s CPU      6.53s WALL (       6 calls)
     v_of_rho     :      2.77s CPU      3.73s WALL (       7 calls)
     mix_rho      :      1.37s CPU      1.98s WALL (       6 calls)

     Called by c_bands:
     init_us_2    :      0.12s CPU      0.12s WALL (      13 calls)
     regterg      :    218.26s CPU    218.28s WALL (       7 calls)

     Called by *egterg:
     rdiaghg      :      2.22s CPU      2.24s WALL (     128 calls)
                                        2.24s GPU  (     128 calls)
     h_psi        :     93.90s CPU     93.92s WALL (     129 calls)
                                       93.92s GPU  (     129 calls)
     g_psi        :      0.00s CPU      0.92s WALL (     121 calls)
                                        0.92s GPU  (     121 calls)

     Called by h_psi:
     h_psi:calbec :      0.09s CPU      4.42s WALL (     129 calls)
                                        4.41s GPU  (     129 calls)
     vloc_psi     :     85.15s CPU     85.17s WALL (     129 calls)
                                       85.17s GPU  (     129 calls)
     add_vuspsi   :      0.02s CPU      3.85s WALL (     129 calls)
                                        3.84s GPU  (     129 calls)

     General routines
     calbec       :      0.09s CPU      0.10s WALL (     129 calls)
     fft          :      0.00s CPU      0.46s WALL (      56 calls)
                                        0.46s GPU  (      56 calls)
     ffts         :      0.00s CPU      0.05s WALL (       6 calls)
                                        0.05s GPU  (       6 calls)
     fftw         :      0.03s CPU     75.59s WALL (    1380 calls)
                                       75.59s GPU  (    1380 calls)
 
     Parallel routines
 
     PWSCF        :   3m56.45s CPU   4m 9.02s WALL

 
   This run was terminated on:   5:59:52  30Jan2026            

=------------------------------------------------------------------------------=
   JOB DONE.
=------------------------------------------------------------------------------=
