
     Program PWSCF v.7.5 starts on 10Feb2026 at 15:32:16 

     This program is part of the open-source Quantum ESPRESSO suite
     for quantum simulation of materials; please cite
         "P. Giannozzi et al., J. Phys.:Condens. Matter 21 395502 (2009);
         "P. Giannozzi et al., J. Phys.:Condens. Matter 29 465901 (2017);
         "P. Giannozzi et al., J. Chem. Phys. 152 154105 (2020);
          URL http://www.quantum-espresso.org", 
     in publications or presentations arising from this work. More details at
     http://www.quantum-espresso.org/quote

     Parallel version (MPI & OpenMP), running on       4 processor cores
     Number of MPI processes:                 4
     Threads/MPI process:                     1

     MPI processes distributed on     1 nodes
     1140849 MiB available memory on the printing compute node when the environment starts
 
     Reading input from pw.in

     Current dimensions of program PWSCF are:
     Max number of different atomic species (ntypx) = 10
     Max number of k-points (npk) =  40000
     Max angular momentum in pseudopotentials (lmaxx) =  4

     gamma-point specific algorithms are used
     Found identity + (  0.0000  0.0000  0.3333) symmetry
     This is a supercell, fractional translations are disabled
     Message from routine setup:
     using ibrav=0 with symmetry is DISCOURAGED, use correct ibrav instead
 
     R & G space division:  proc/nbgrp/npool/nimage =       4
     Subspace diagonalization in iterative solution of the eigenvalue problem:
     a serial algorithm will be used

 
     Parallelization info
     --------------------
     sticks:   dense  smooth     PW     G-vecs:    dense   smooth      PW
     Min        6369    6369   1591              1621353  1621353  202668
     Max        6372    6372   1594              1621356  1621356  202674
     Sum       25481   25481   6369              6485417  6485417  810683
 
     Using Slab Decomposition
 


     bravais-lattice index     =            0
     lattice parameter (alat)  =      20.0000  a.u.
     unit-cell volume          =   48000.0000 (a.u.)^3
     number of atoms/cell      =           30
     number of atomic types    =            2
     number of electrons       =        48.00
     number of Kohn-Sham states=          200
     kinetic-energy cutoff     =     100.0000  Ry
     charge density cutoff     =     400.0000  Ry
     scf convergence threshold =      1.0E-06
     mixing beta               =       0.7000
     number of iterations used =            8  plain     mixing
     Exchange-correlation= PBE
                           (   1   4   3   4   0   0   0)

     GPU acceleration is ACTIVE.  8 visible GPUs per MPI rank
     GPU-aware MPI enabled

     Assuming isolated system, Martyna-Tuckerman method


     celldm(1)=  20.000000  celldm(2)=   0.000000  celldm(3)=   0.000000
     celldm(4)=   0.000000  celldm(5)=   0.000000  celldm(6)=   0.000000

     crystal axes: (cart. coord. in units of alat)
               a(1) = (   1.000000   0.000000   0.000000 )  
               a(2) = (   0.000000   2.000000   0.000000 )  
               a(3) = (   0.000000   0.000000   3.000000 )  

     reciprocal axes: (cart. coord. in units 2 pi/alat)
               b(1) = (  1.000000  0.000000  0.000000 )  
               b(2) = (  0.000000  0.500000  0.000000 )  
               b(3) = (  0.000000  0.000000  0.333333 )  


     PseudoPot. # 1 for Si read from file:
     ./Si_ONCV_PBE-1.2.upf
     MD5 check sum: 7f029a58b69e3aa87b46a36c608bf45e
     Pseudo is Norm-conserving, Zval =  4.0
     Generated using ONCVPSP code by D. R. Hamann
     Using radial grid of  602 points,  4 beta functions with: 
                l(1) =   0
                l(2) =   0
                l(3) =   1
                l(4) =   1

     PseudoPot. # 2 for H  read from file:
     ./H_ONCV_PBE-1.2.upf
     MD5 check sum: bf21e08b90ac4ce7d0149ac4e8138190
     Pseudo is Norm-conserving, Zval =  1.0
     Generated using ONCVPSP code by D. R. Hamann
     Using radial grid of  602 points,  2 beta functions with: 
                l(1) =   0
                l(2) =   0

     atomic species   valence    mass     pseudopotential
     Si                4.00    28.08550     Si( 1.00)
     H                 1.00     1.00794     H ( 1.00)

      4 Sym. Ops. (no inversion) found



   Cartesian axes

     site n.     atom                  positions (alat units)
         1        Si     tau(   1) = (   0.5000000   0.5000000   0.5000000  )
         2        H      tau(   2) = (   0.5807290   0.5807290   0.5807290  )
         3        H      tau(   3) = (   0.4192709   0.4192709   0.5807290  )
         4        H      tau(   4) = (   0.4192709   0.5807290   0.4192709  )
         5        H      tau(   5) = (   0.5807290   0.4192709   0.4192709  )
         6        Si     tau(   6) = (   0.5000000   0.5000000   1.5000000  )
         7        H      tau(   7) = (   0.5807290   0.5807290   1.5807290  )
         8        H      tau(   8) = (   0.4192709   0.4192709   1.5807290  )
         9        H      tau(   9) = (   0.4192709   0.5807290   1.4192709  )
        10        H      tau(  10) = (   0.5807290   0.4192709   1.4192709  )
        11        Si     tau(  11) = (   0.5000000   0.5000000   2.5000000  )
        12        H      tau(  12) = (   0.5807290   0.5807290   2.5807290  )
        13        H      tau(  13) = (   0.4192709   0.4192709   2.5807290  )
        14        H      tau(  14) = (   0.4192709   0.5807290   2.4192709  )
        15        H      tau(  15) = (   0.5807290   0.4192709   2.4192709  )
        16        Si     tau(  16) = (   0.5000000   1.5000000   0.5000000  )
        17        H      tau(  17) = (   0.5807290   1.5807290   0.5807290  )
        18        H      tau(  18) = (   0.4192709   1.4192709   0.5807290  )
        19        H      tau(  19) = (   0.4192709   1.5807290   0.4192709  )
        20        H      tau(  20) = (   0.5807290   1.4192709   0.4192709  )
        21        Si     tau(  21) = (   0.5000000   1.5000000   1.5000000  )
        22        H      tau(  22) = (   0.5807290   1.5807290   1.5807290  )
        23        H      tau(  23) = (   0.4192709   1.4192709   1.5807290  )
        24        H      tau(  24) = (   0.4192709   1.5807290   1.4192709  )
        25        H      tau(  25) = (   0.5807290   1.4192709   1.4192709  )
        26        Si     tau(  26) = (   0.5000000   1.5000000   2.5000000  )
        27        H      tau(  27) = (   0.5807290   1.5807290   2.5807290  )
        28        H      tau(  28) = (   0.4192709   1.4192709   2.5807290  )
        29        H      tau(  29) = (   0.4192709   1.5807290   2.4192709  )
        30        H      tau(  30) = (   0.5807290   1.4192709   2.4192709  )

     number of k points=     1
                       cart. coord. in units 2pi/alat
        k(    1) = (   0.0000000   0.0000000   0.0000000), wk =   2.0000000

     Dense  grid:  3242709 G-vectors     FFT dimensions: ( 128, 256, 384)

     Estimated max dynamical RAM per process >       2.22 GB

     Estimated total dynamical RAM >       8.89 GB

     Initial potential from superposition of free atoms

     starting charge      47.6714, renormalised to      48.0000

     negative rho (up, down):  4.239E-03 0.000E+00
     Starting wfcs are random

     total cpu time spent up to now is        3.7 secs

     Self-consistent Calculation

     iteration #  1     ecut=   100.00 Ry     beta= 0.70
     Davidson diagonalization with overlap
     ethr =  1.00E-02,  avg # of iterations = 15.0

     negative rho (up, down):  3.414E-07 0.000E+00

     total cpu time spent up to now is        8.1 secs

     total energy              =     -75.28700769 Ry
     estimated scf accuracy    <       1.45831282 Ry

     iteration #  2     ecut=   100.00 Ry     beta= 0.70
     Davidson diagonalization with overlap
     ethr =  3.04E-03,  avg # of iterations =  8.0

     total cpu time spent up to now is        9.0 secs

     total energy              =     -75.37888340 Ry
     estimated scf accuracy    <       0.04192343 Ry

     iteration #  3     ecut=   100.00 Ry     beta= 0.70
     Davidson diagonalization with overlap
     ethr =  8.73E-05,  avg # of iterations = 22.0

     total cpu time spent up to now is       11.3 secs

     total energy              =     -75.40436388 Ry
     estimated scf accuracy    <       0.00146752 Ry

     iteration #  4     ecut=   100.00 Ry     beta= 0.70
     Davidson diagonalization with overlap
     ethr =  3.06E-06,  avg # of iterations = 51.0

     total cpu time spent up to now is       13.6 secs

     total energy              =     -75.40535651 Ry
     estimated scf accuracy    <       0.00042054 Ry

     iteration #  5     ecut=   100.00 Ry     beta= 0.70
     Davidson diagonalization with overlap
     ethr =  8.76E-07,  avg # of iterations =  9.0

     negative rho (up, down):  7.783E-06 0.000E+00

     total cpu time spent up to now is       14.4 secs

     total energy              =     -75.40543939 Ry
     estimated scf accuracy    <       0.00000688 Ry

     iteration #  6     ecut=   100.00 Ry     beta= 0.70
     Davidson diagonalization with overlap
     c_bands:  5 eigenvalues not converged
     ethr =  1.43E-08,  avg # of iterations = 40.0

     negative rho (up, down):  2.050E-06 0.000E+00

     total cpu time spent up to now is       17.4 secs

     total energy              =     -75.40546131 Ry
     estimated scf accuracy    <       0.00000389 Ry

     iteration #  7     ecut=   100.00 Ry     beta= 0.70
     Davidson diagonalization with overlap
     c_bands:  4 eigenvalues not converged
     ethr =  8.11E-09,  avg # of iterations = 20.0

     total cpu time spent up to now is       18.6 secs

     End of self-consistent calculation

          k = 0.0000 0.0000 0.0000 (405342 PWs)   bands (ev):

   -13.2960 -13.2960 -13.2960 -13.2959 -13.2959 -13.2957  -8.3716  -8.3716
    -8.3715  -8.3715  -8.3714  -8.3713  -8.3231  -8.3231  -8.3231  -8.3231
    -8.3230  -8.3229  -8.3226  -8.3226  -8.3225  -8.3225  -8.3225  -8.3224
    -0.5451  -0.4480  -0.4480  -0.3598  -0.2681  -0.2680  -0.0241   0.0060
     0.0060   0.0691   0.0691   0.0700   0.0700   0.0772   0.0772   0.1070
     0.1076   0.1161   0.1161   0.1384   0.1386   0.1594   0.1595   0.1771
     0.3687   0.4255   0.4256   0.4437   0.4437   0.6372   0.6372   0.8519
     0.9385   0.9386   0.9439   0.9600   0.9600   0.9603   0.9645   0.9911
     1.0599   1.0601   1.0602   1.0707   1.0708   1.0963   1.1522   1.1678
     1.1875   1.1876   1.2500   1.2716   1.2716   1.4146   1.4147   1.5403
     1.5403   1.5543   1.6586   1.6588   1.7426   1.7886   1.7887   1.7904
     1.8181   1.8183   1.8352   1.8636   1.8637   1.8836   1.9294   1.9296
     1.9339   1.9341   1.9631   1.9632   2.0471   2.0472   2.2581   2.2581
     2.2620   2.2725   2.2726   2.3551   2.3919   2.3975   2.4118   2.4121
     2.4143   2.4388   2.4642   2.4643   2.5209   2.5471   2.5472   2.5736
     2.5815   2.5929   2.5930   2.6099   2.6520   2.6521   2.6529   2.6529
     2.6578   2.7323   2.7595   2.7596   2.8219   2.8362   2.8686   2.8686
     2.8722   2.8987   2.9432   2.9433   2.9809   2.9810   3.0182   3.0283
     3.0369   3.0788   3.0788   3.1504   3.1789   3.2001   3.2002   3.2088
     3.2090   3.2706   3.2721   3.2731   3.2733   3.3281   3.3282   3.3377
     3.4195   3.4195   3.5234   3.5392   3.5393   3.5404   3.5405   3.5538
     3.5539   3.5703   3.5704   3.6589   3.6589   3.6865   3.6930   3.6930
     3.8217   3.8218   3.8586   3.8725   3.8793   3.8889   3.8890   3.9062
     3.9062   3.9178   3.9396   4.0844   4.0844   4.1092   4.1093   4.1096
     4.1173   4.1213   4.1423   4.1883   4.1884   4.1907   4.1908   4.2105

     highest occupied, lowest unoccupied level (ev):    -8.3224   -0.5451

!    total energy              =     -75.40546218 Ry
     estimated scf accuracy    <       0.00000002 Ry

     The total energy is the sum of the following terms:
     one-electron contribution =    -437.80824074 Ry
     hartree contribution      =     221.92414930 Ry
     xc contribution           =     -30.86193726 Ry
     ewald contribution        =     171.34056653 Ry

     convergence has been achieved in   7 iterations

     Writing all to output data dir ./test.save/ :
     XML data file, charge density, pseudopotentials, collected wavefunctions
 
     init_run     :      1.73s CPU      3.59s WALL (       1 calls)
     electrons    :     13.47s CPU     15.42s WALL (       1 calls)

     Called by init_run:
     wfcinit      :      0.17s CPU      1.51s WALL (       1 calls)
     potinit      :      0.15s CPU      0.22s WALL (       1 calls)
     hinit0       :      0.56s CPU      0.73s WALL (       1 calls)

     Called by electrons:
     c_bands      :     10.65s CPU     12.03s WALL (       7 calls)
     sum_band     :      1.00s CPU      1.01s WALL (       7 calls)
     v_of_rho     :      0.73s CPU      0.83s WALL (       8 calls)
     mix_rho      :      0.65s CPU      0.76s WALL (       7 calls)

     Called by c_bands:
     init_us_2    :      0.02s CPU      0.02s WALL (      15 calls)
     regterg      :     10.27s CPU     11.65s WALL (      11 calls)

     Called by *egterg:
     rdiaghg      :      0.94s CPU      0.97s WALL (     176 calls)
                                        0.97s GPU  (     176 calls)
     h_psi        :      6.41s CPU      7.70s WALL (     177 calls)
     g_psi        :      0.04s CPU      0.04s WALL (     165 calls)

     Called by h_psi:
     h_psi:calbec :      0.17s CPU      0.26s WALL (     177 calls)
     vloc_psi     :      6.13s CPU      7.33s WALL (     177 calls)
                                        7.33s GPU  (     177 calls)
     add_vuspsi   :      0.07s CPU      0.07s WALL (     177 calls)

     General routines
     calbec       :      0.17s CPU      0.26s WALL (     177 calls)
     fft          :      0.13s CPU      0.23s WALL (      64 calls)
                                        0.23s GPU  (      64 calls)
     ffts         :      0.03s CPU      0.03s WALL (       7 calls)
                                        0.03s GPU  (       7 calls)
     fftw         :      3.58s CPU      6.33s WALL (    1880 calls)
                                        6.31s GPU  (    1880 calls)
 
     Parallel routines
 
     PWSCF        :     15.56s CPU     34.48s WALL

 
   This run was terminated on:  15:32:50  10Feb2026            

=------------------------------------------------------------------------------=
   JOB DONE.
=------------------------------------------------------------------------------=
